
     Program PWSCF v.6.7MaX starts on  1Sep2024 at 16:14:12 

     This program is part of the open-source Quantum ESPRESSO suite
     for quantum simulation of materials; please cite
         "P. Giannozzi et al., J. Phys.:Condens. Matter 21 395502 (2009);
         "P. Giannozzi et al., J. Phys.:Condens. Matter 29 465901 (2017);
          URL http://www.quantum-espresso.org", 
     in publications or presentations arising from this work. More details at
     http://www.quantum-espresso.org/quote

     Parallel version (MPI), running on     4 processors

     MPI processes distributed on     1 nodes
     R & G space division:  proc/nbgrp/npool/nimage =       4
     Reading input from carbon_nanotube_SCF2.in

     Current dimensions of program PWSCF are:
     Max number of different atomic species (ntypx) = 10
     Max number of k-points (npk) =  40000
     Max angular momentum in pseudopotentials (lmaxx) =  3
     file C.pbe-n-kjpaw_psl.1.0.0.UPF: wavefunction(s)  2S 2P renormalized

     IMPORTANT: XC functional enforced from input :
     Exchange-correlation= PBE
                           (   1   4   3   4   0   0   0)
     Any further DFT definition will be discarded
     Please, verify this is what you really want


     Subspace diagonalization in iterative solution of the eigenvalue problem:
     one sub-group per band group will be used
     scalapack distributed-memory algorithm (size of sub-group:  2*  2 procs)


     Parallelization info
     --------------------
     sticks:   dense  smooth     PW     G-vecs:    dense   smooth      PW
     Min       20842   10233   3140               371411   127792   21663
     Max       20844   10239   3142               371412   127793   21664
     Sum       83373   40945  12565              1485647   511171   86655



     bravais-lattice index     =            6
     lattice parameter (alat)  =      56.6918  a.u.
     unit-cell volume          =   14937.8366 (a.u.)^3
     number of atoms/cell      =           20
     number of atomic types    =            1
     number of electrons       =        80.00
     number of Kohn-Sham states=           40
     kinetic-energy cutoff     =      40.0000  Ry
     charge density cutoff     =     326.0000  Ry
     scf convergence threshold =      1.0E-09
     mixing beta               =       0.6000
     number of iterations used =            8  plain     mixing
     Exchange-correlation= PBE
                           (   1   4   3   4   0   0   0)

     celldm(1)=  56.691784  celldm(2)=   0.000000  celldm(3)=   0.081984
     celldm(4)=   0.000000  celldm(5)=   0.000000  celldm(6)=   0.000000

     crystal axes: (cart. coord. in units of alat)
               a(1) = (   1.000000   0.000000   0.000000 )  
               a(2) = (   0.000000   1.000000   0.000000 )  
               a(3) = (   0.000000   0.000000   0.081984 )  

     reciprocal axes: (cart. coord. in units 2 pi/alat)
               b(1) = (  1.000000  0.000000  0.000000 )  
               b(2) = (  0.000000  1.000000  0.000000 )  
               b(3) = (  0.000000  0.000000 12.197552 )  


     PseudoPot. # 1 for C  read from file:
     /home/alessandro_rotondi/q-e/pseudo/C.pbe-n-kjpaw_psl.1.0.0.UPF
     MD5 check sum: 5f16ad9a65e90284d1d834d4ab3b0f7d
     Pseudo is Projector augmented-wave + core cor, Zval =  4.0
     Generated using &quot;atomic&quot; code by A. Dal Corso  v.6.3
     Shape of augmentation charge: PSQ
     Using radial grid of 1073 points,  4 beta functions with: 
                l(1) =   0
                l(2) =   0
                l(3) =   1
                l(4) =   1
     Q(r) pseudized with 0 coefficients 


     atomic species   valence    mass     pseudopotential
        C              4.00    12.01070     C ( 1.00)

      2 Sym. Ops. (no inversion) found


                                    s                        frac. trans.

      isym =  1     identity                                     

 cryst.   s( 1) = (     1          0          0      )
                  (     0          1          0      )
                  (     0          0          1      )

 cart.    s( 1) = (  1.0000000  0.0000000  0.0000000 )
                  (  0.0000000  1.0000000  0.0000000 )
                  (  0.0000000  0.0000000  1.0000000 )


      isym =  2     inv. 180 deg rotation - cart. axis [0,0,1]   

 cryst.   s( 2) = (     1          0          0      )
                  (     0          1          0      )
                  (     0          0         -1      )

 cart.    s( 2) = (  1.0000000  0.0000000  0.0000000 )
                  (  0.0000000  1.0000000  0.0000000 )
                  (  0.0000000  0.0000000 -1.0000000 )


     point group C_s (m)    
     there are  2 classes
     the character table:

       E     s    
A'     1.00  1.00
A''    1.00 -1.00

     the symmetry operations in each class and the name of the first element:

     E        1
          identity                                               
     s        2
          inv. 180 deg rotation - cart. axis [0,0,1]             

   Cartesian axes

     site n.     atom                  positions (alat units)
         1           C   tau(   1) = (   0.5353381   0.6092469   0.0409918  )
         2           C   tau(   2) = (   0.4070003   0.5673834   0.0409918  )
         3           C   tau(   3) = (   0.4071864   0.4323775   0.0409918  )
         4           C   tau(   4) = (   0.5356244   0.3908439   0.0409918  )
         5           C   tau(   5) = (   0.6148290   0.5001499   0.0409918  )
         6           C   tau(   6) = (   0.4878012   0.6141685   0.0409918  )
         7           C   tau(   7) = (   0.3876396   0.5236944   0.0409918  )
         8           C   tau(   8) = (   0.4427534   0.4004671   0.0409918  )
         9           C   tau(   9) = (   0.5769841   0.4147924   0.0409918  )
        10           C   tau(  10) = (   0.6048218   0.5468732   0.0409918  )
        11           C   tau(  11) = (   0.4643835   0.6091365   0.0000000  )
        12           C   tau(  12) = (   0.3851970   0.4998545   0.0000000  )
        13           C   tau(  13) = (   0.4646665   0.3907747   0.0000000  )
        14           C   tau(  14) = (   0.5929795   0.4326267   0.0000000  )
        15           C   tau(  15) = (   0.5927971   0.5676044   0.0000000  )
        16           C   tau(  16) = (   0.5572300   0.5995134   0.0000000  )
        17           C   tau(  17) = (   0.4230303   0.5851906   0.0000000  )
        18           C   tau(  18) = (   0.3952019   0.4531321   0.0000000  )
        19           C   tau(  19) = (   0.5121971   0.3858580   0.0000000  )
        20           C   tau(  20) = (   0.6123398   0.4763120   0.0000000  )

   Crystallographic axes

     site n.     atom                  positions (cryst. coord.)
         1           C   tau(   1) = (  0.5353381  0.6092469  0.5000000  )
         2           C   tau(   2) = (  0.4070003  0.5673834  0.5000000  )
         3           C   tau(   3) = (  0.4071864  0.4323775  0.5000000  )
         4           C   tau(   4) = (  0.5356244  0.3908439  0.5000000  )
         5           C   tau(   5) = (  0.6148290  0.5001499  0.5000000  )
         6           C   tau(   6) = (  0.4878012  0.6141685  0.5000000  )
         7           C   tau(   7) = (  0.3876396  0.5236944  0.5000000  )
         8           C   tau(   8) = (  0.4427534  0.4004671  0.5000000  )
         9           C   tau(   9) = (  0.5769841  0.4147924  0.5000000  )
        10           C   tau(  10) = (  0.6048218  0.5468732  0.5000000  )
        11           C   tau(  11) = (  0.4643835  0.6091365  0.0000000  )
        12           C   tau(  12) = (  0.3851970  0.4998545  0.0000000  )
        13           C   tau(  13) = (  0.4646665  0.3907747  0.0000000  )
        14           C   tau(  14) = (  0.5929795  0.4326267  0.0000000  )
        15           C   tau(  15) = (  0.5927971  0.5676044  0.0000000  )
        16           C   tau(  16) = (  0.5572300  0.5995134  0.0000000  )
        17           C   tau(  17) = (  0.4230303  0.5851906  0.0000000  )
        18           C   tau(  18) = (  0.3952019  0.4531321  0.0000000  )
        19           C   tau(  19) = (  0.5121971  0.3858580  0.0000000  )
        20           C   tau(  20) = (  0.6123398  0.4763120  0.0000000  )

     number of k points=    24
                       cart. coord. in units 2pi/alat
        k(    1) = (   0.0000000   0.0000000   0.0000000), wk =   0.0500000
        k(    2) = (   0.0000000   0.0000000   1.2197552), wk =   0.1000000
        k(    3) = (   0.0000000   0.0000000   2.4395103), wk =   0.1000000
        k(    4) = (   0.0000000   0.0000000   3.6592655), wk =   0.1000000
        k(    5) = (   0.0000000   0.0000000   4.8790206), wk =   0.1000000
        k(    6) = (   0.0000000   0.0000000  -6.0987758), wk =   0.0500000
        k(    7) = (   0.0000000  -0.5000000   0.0000000), wk =   0.0500000
        k(    8) = (   0.0000000  -0.5000000   1.2197552), wk =   0.1000000
        k(    9) = (   0.0000000  -0.5000000   2.4395103), wk =   0.1000000
        k(   10) = (   0.0000000  -0.5000000   3.6592655), wk =   0.1000000
        k(   11) = (   0.0000000  -0.5000000   4.8790206), wk =   0.1000000
        k(   12) = (   0.0000000  -0.5000000  -6.0987758), wk =   0.0500000
        k(   13) = (  -0.5000000  -0.5000000   0.0000000), wk =   0.0500000
        k(   14) = (  -0.5000000  -0.5000000   1.2197552), wk =   0.1000000
        k(   15) = (  -0.5000000  -0.5000000   2.4395103), wk =   0.1000000
        k(   16) = (  -0.5000000  -0.5000000   3.6592655), wk =   0.1000000
        k(   17) = (  -0.5000000  -0.5000000   4.8790206), wk =   0.1000000
        k(   18) = (  -0.5000000  -0.5000000  -6.0987758), wk =   0.0500000
        k(   19) = (  -0.5000000   0.0000000   0.0000000), wk =   0.0500000
        k(   20) = (  -0.5000000   0.0000000  -1.2197552), wk =   0.1000000
        k(   21) = (  -0.5000000   0.0000000  -2.4395103), wk =   0.1000000
        k(   22) = (  -0.5000000   0.0000000  -3.6592655), wk =   0.1000000
        k(   23) = (  -0.5000000   0.0000000  -4.8790206), wk =   0.1000000
        k(   24) = (  -0.5000000   0.0000000   6.0987758), wk =   0.0500000

                       cryst. coord.
        k(    1) = (   0.0000000   0.0000000   0.0000000), wk =   0.0500000
        k(    2) = (   0.0000000   0.0000000   0.1000000), wk =   0.1000000
        k(    3) = (   0.0000000   0.0000000   0.2000000), wk =   0.1000000
        k(    4) = (   0.0000000   0.0000000   0.3000000), wk =   0.1000000
        k(    5) = (   0.0000000   0.0000000   0.4000000), wk =   0.1000000
        k(    6) = (   0.0000000   0.0000000  -0.5000000), wk =   0.0500000
        k(    7) = (   0.0000000  -0.5000000   0.0000000), wk =   0.0500000
        k(    8) = (   0.0000000  -0.5000000   0.1000000), wk =   0.1000000
        k(    9) = (   0.0000000  -0.5000000   0.2000000), wk =   0.1000000
        k(   10) = (   0.0000000  -0.5000000   0.3000000), wk =   0.1000000
        k(   11) = (   0.0000000  -0.5000000   0.4000000), wk =   0.1000000
        k(   12) = (   0.0000000  -0.5000000  -0.5000000), wk =   0.0500000
        k(   13) = (  -0.5000000  -0.5000000   0.0000000), wk =   0.0500000
        k(   14) = (  -0.5000000  -0.5000000   0.1000000), wk =   0.1000000
        k(   15) = (  -0.5000000  -0.5000000   0.2000000), wk =   0.1000000
        k(   16) = (  -0.5000000  -0.5000000   0.3000000), wk =   0.1000000
        k(   17) = (  -0.5000000  -0.5000000   0.4000000), wk =   0.1000000
        k(   18) = (  -0.5000000  -0.5000000  -0.5000000), wk =   0.0500000
        k(   19) = (  -0.5000000   0.0000000   0.0000000), wk =   0.0500000
        k(   20) = (  -0.5000000   0.0000000  -0.1000000), wk =   0.1000000
        k(   21) = (  -0.5000000   0.0000000  -0.2000000), wk =   0.1000000
        k(   22) = (  -0.5000000   0.0000000  -0.3000000), wk =   0.1000000
        k(   23) = (  -0.5000000   0.0000000  -0.4000000), wk =   0.1000000
        k(   24) = (  -0.5000000   0.0000000   0.5000000), wk =   0.0500000

     Dense  grid:  1485647 G-vectors     FFT dimensions: ( 360, 360,  27)

     Smooth grid:   511171 G-vectors     FFT dimensions: ( 240, 240,  20)

     Dynamical RAM for                 wfc:       9.74 MB

     Dynamical RAM for     wfc (w. buffer):     243.44 MB

     Dynamical RAM for           str. fact:       5.67 MB

     Dynamical RAM for           local pot:       0.00 MB

     Dynamical RAM for          nlocal pot:      38.95 MB

     Dynamical RAM for                qrad:       0.41 MB

     Dynamical RAM for          rho,v,vnew:      37.77 MB

     Dynamical RAM for               rhoin:      12.59 MB

     Dynamical RAM for            rho*nmix:      90.68 MB

     Dynamical RAM for           G-vectors:      22.23 MB

     Dynamical RAM for          h,s,v(r/c):       0.07 MB

     Dynamical RAM for          <psi|beta>:       0.10 MB

     Dynamical RAM for                 psi:      19.48 MB

     Dynamical RAM for                hpsi:      19.48 MB

     Dynamical RAM for                spsi:      19.48 MB

     Dynamical RAM for      wfcinit/wfcrot:      19.51 MB

     Dynamical RAM for           addusdens:     357.04 MB

     Estimated static dynamical RAM per process >     497.67 MB

     Estimated max dynamical RAM per process >     854.71 MB

     Estimated total dynamical RAM >       3.34 GB

     Atomic positions and unit cell read from directory:
     ./tmp/carbon_nanotube.save/


     Check: negative core charge=   -0.000002

     The initial density is read from file :
     ./tmp/carbon_nanotube.save/charge-density


     negative rho (up, down):  4.009E-03 0.000E+00
     Starting wfcs from file
     Checking if some PAW data can be deallocated... 

     total cpu time spent up to now is       11.6 secs

     Self-consistent Calculation

     iteration #  1     ecut=    40.00 Ry     beta= 0.60
     Davidson diagonalization with overlap
     ethr =  1.00E-05,  avg # of iterations =  5.5

     Threshold (ethr) on eigenvalues was too large:
     Diagonalizing with lowered threshold

     Davidson diagonalization with overlap
     ethr =  5.62E-09,  avg # of iterations =  5.8

     negative rho (up, down):  4.009E-03 0.000E+00

     total cpu time spent up to now is      879.1 secs

     total energy              =    -368.61238130 Ry
     estimated scf accuracy    <          8.3E-09 Ry

     iteration #  2     ecut=    40.00 Ry     beta= 0.60
     Davidson diagonalization with overlap
     ethr =  1.03E-11,  avg # of iterations =  5.8

     negative rho (up, down):  4.009E-03 0.000E+00

     total cpu time spent up to now is     1319.6 secs

     total energy              =    -368.61238133 Ry
     estimated scf accuracy    <          6.5E-09 Ry

     iteration #  3     ecut=    40.00 Ry     beta= 0.60
     Davidson diagonalization with overlap
     ethr =  8.15E-12,  avg # of iterations =  2.1

     negative rho (up, down):  4.009E-03 0.000E+00

     total cpu time spent up to now is     1606.5 secs

     End of self-consistent calculation

          k = 0.0000 0.0000 0.0000 ( 63941 PWs)   bands (ev):

   -23.1853 -22.9219 -22.9213 -22.1483 -22.1481 -20.9127 -20.9123 -19.2940
   -19.2930 -17.8237 -16.5576 -14.8157 -14.8152 -12.4330 -12.4325 -11.3222
   -11.0272 -11.0266 -10.5916 -10.5909  -9.8953  -9.6597  -9.6575  -9.1236
    -9.1227  -8.9817  -8.9815  -8.3147  -8.3139  -7.9878  -7.9873  -7.5018
    -7.4993  -6.9782  -6.9751  -6.6066  -6.5998  -6.5985  -6.5105  -5.4336

     occupation numbers 
     1.0000   1.0000   1.0000   1.0000   1.0000   1.0000   1.0000   1.0000
     1.0000   1.0000   1.0000   1.0000   1.0000   1.0000   1.0000   1.0000
     1.0000   1.0000   1.0000   1.0000   1.0000   1.0000   1.0000   1.0000
     1.0000   1.0000   1.0000   1.0000   1.0000   1.0000   1.0000   1.0000
     1.0000   1.0000   1.0000   1.0000   1.0000   1.0000   1.0000   1.0000

          k = 0.0000 0.0000 1.2198 ( 63989 PWs)   bands (ev):

   -23.0062 -22.7435 -22.7428 -21.9721 -21.9718 -20.7406 -20.7402 -19.1293
   -19.1282 -17.6703 -16.4094 -14.6939 -14.6935 -12.3734 -12.3730 -11.1149
   -10.8276 -10.8271 -10.6574 -10.5193 -10.5186 -10.4129 -10.4107  -9.7006
    -9.7005  -9.1428  -9.1421  -8.5759  -8.5753  -8.1252  -8.1244  -7.9616
    -7.9591  -7.4002  -7.3976  -7.1975  -6.9382  -6.4093  -6.4080  -5.2283

     occupation numbers 
     1.0000   1.0000   1.0000   1.0000   1.0000   1.0000   1.0000   1.0000
     1.0000   1.0000   1.0000   1.0000   1.0000   1.0000   1.0000   1.0000
     1.0000   1.0000   1.0000   1.0000   1.0000   1.0000   1.0000   1.0000
     1.0000   1.0000   1.0000   1.0000   1.0000   1.0000   1.0000   1.0000
     1.0000   1.0000   1.0000   1.0000   1.0000   1.0000   1.0000   1.0000

          k = 0.0000 0.0000 2.4395 ( 63941 PWs)   bands (ev):

   -22.4707 -22.2102 -22.2095 -21.4456 -21.4453 -20.2270 -20.2266 -18.6391
   -18.6380 -17.2108 -16.0079 -14.4092 -14.4086 -12.5038 -12.5037 -12.3772
   -12.0676 -12.0657 -11.0411 -11.0407 -11.0380 -11.0379 -10.5100 -10.3009
   -10.3007  -9.6779  -9.6774  -9.4897  -9.4877  -8.7907  -8.6456  -8.6448
    -7.9739  -7.9719  -7.8562  -7.5713  -7.5706  -5.8635  -5.8622  -4.6176

     occupation numbers 
     1.0000   1.0000   1.0000   1.0000   1.0000   1.0000   1.0000   1.0000
     1.0000   1.0000   1.0000   1.0000   1.0000   1.0000   1.0000   1.0000
     1.0000   1.0000   1.0000   1.0000   1.0000   1.0000   1.0000   1.0000
     1.0000   1.0000   1.0000   1.0000   1.0000   1.0000   1.0000   1.0000
     1.0000   1.0000   1.0000   1.0000   1.0000   1.0000   1.0000   1.0000

          k = 0.0000 0.0000 3.6593 ( 63665 PWs)   bands (ev):

   -21.5857 -21.3291 -21.3284 -20.5768 -20.5765 -19.3830 -19.3826 -17.8464
   -17.8452 -16.4481 -15.7906 -14.8797 -14.8793 -14.0042 -14.0041 -13.9049
   -12.9801 -12.9796 -12.8792 -12.8788 -11.5630 -11.5610 -11.1330 -11.1326
   -10.6477  -9.7811  -9.6387  -9.6384  -9.4350  -9.4345  -8.9130  -8.5769
    -8.5761  -7.9711  -7.9707  -6.7176  -6.7171  -5.1020  -5.1009  -3.6201

     occupation numbers 
     1.0000   1.0000   1.0000   1.0000   1.0000   1.0000   1.0000   1.0000
     1.0000   1.0000   1.0000   1.0000   1.0000   1.0000   1.0000   1.0000
     1.0000   1.0000   1.0000   1.0000   1.0000   1.0000   1.0000   1.0000
     1.0000   1.0000   1.0000   1.0000   1.0000   1.0000   1.0000   1.0000
     1.0000   1.0000   1.0000   1.0000   1.0000   1.0000   1.0000   1.0000

          k = 0.0000 0.0000 4.8790 ( 63698 PWs)   bands (ev):

   -20.3661 -20.1160 -20.1152 -19.3867 -19.3865 -18.2598 -18.2593 -17.1691
   -17.1687 -17.1163 -16.2126 -16.2126 -15.8863 -15.8862 -15.3884 -14.8121
   -14.8117 -13.5412 -13.4446 -13.4429 -12.4447 -12.3042 -12.3039 -10.8776
   -10.6483 -10.6480 -10.1217 -10.1206  -9.7597  -9.7596  -7.9543  -7.6600
    -7.6597  -6.8689  -6.8686  -5.8196  -5.8192  -4.9133  -4.9127  -4.5959

     occupation numbers 
     1.0000   1.0000   1.0000   1.0000   1.0000   1.0000   1.0000   1.0000
     1.0000   1.0000   1.0000   1.0000   1.0000   1.0000   1.0000   1.0000
     1.0000   1.0000   1.0000   1.0000   1.0000   1.0000   1.0000   1.0000
     1.0000   1.0000   1.0000   1.0000   1.0000   1.0000   1.0000   1.0000
     1.0000   1.0000   1.0000   1.0000   1.0000   1.0000   1.0000   1.0000

          k = 0.0000 0.0000-6.0988 ( 63698 PWs)   bands (ev):

   -18.8442 -18.8441 -18.6112 -18.6111 -18.6105 -18.6103 -17.9949 -17.9947
   -17.9946 -17.9945 -16.4484 -16.4480 -16.4476 -16.4472 -15.1190 -15.1185
   -15.1178 -15.1171 -14.0449 -14.0446 -12.3211 -12.3194 -11.2540 -11.2534
   -11.2526 -11.2517 -10.1315 -10.1313 -10.1298 -10.1296  -6.3317  -6.3305
    -6.1505  -6.1503  -6.1498  -6.1497  -5.7953  -5.7950  -5.7948  -5.7945

     occupation numbers 
     1.0000   1.0000   1.0000   1.0000   1.0000   1.0000   1.0000   1.0000
     1.0000   1.0000   1.0000   1.0000   1.0000   1.0000   1.0000   1.0000
     1.0000   1.0000   1.0000   1.0000   1.0000   1.0000   1.0000   1.0000
     1.0000   1.0000   1.0000   1.0000   1.0000   1.0000   1.0000   1.0000
     1.0000   1.0000   1.0000   1.0000   1.0000   1.0000   1.0000   1.0000

          k = 0.0000-0.5000 0.0000 ( 64074 PWs)   bands (ev):

   -23.1853 -22.9220 -22.9213 -22.1483 -22.1481 -20.9127 -20.9123 -19.2941
   -19.2930 -17.8237 -16.5576 -14.8157 -14.8152 -12.4330 -12.4326 -11.3222
   -11.0272 -11.0267 -10.5916 -10.5909  -9.8953  -9.6598  -9.6575  -9.1236
    -9.1227  -8.9817  -8.9816  -8.3148  -8.3139  -7.9878  -7.9874  -7.5018
    -7.4994  -6.9783  -6.9752  -6.6066  -6.5999  -6.5985  -6.5105  -5.4336

     occupation numbers 
     1.0000   1.0000   1.0000   1.0000   1.0000   1.0000   1.0000   1.0000
     1.0000   1.0000   1.0000   1.0000   1.0000   1.0000   1.0000   1.0000
     1.0000   1.0000   1.0000   1.0000   1.0000   1.0000   1.0000   1.0000
     1.0000   1.0000   1.0000   1.0000   1.0000   1.0000   1.0000   1.0000
     1.0000   1.0000   1.0000   1.0000   1.0000   1.0000   1.0000   1.0000

          k = 0.0000-0.5000 1.2198 ( 63952 PWs)   bands (ev):

   -23.0062 -22.7435 -22.7428 -21.9721 -21.9718 -20.7406 -20.7402 -19.1293
   -19.1282 -17.6703 -16.4094 -14.6940 -14.6935 -12.3734 -12.3730 -11.1149
   -10.8276 -10.8271 -10.6574 -10.5193 -10.5186 -10.4128 -10.4107  -9.7006
    -9.7005  -9.1428  -9.1421  -8.5758  -8.5753  -8.1252  -8.1244  -7.9616
    -7.9590  -7.4002  -7.3975  -7.1975  -6.9382  -6.4092  -6.4080  -5.2283

     occupation numbers 
     1.0000   1.0000   1.0000   1.0000   1.0000   1.0000   1.0000   1.0000
     1.0000   1.0000   1.0000   1.0000   1.0000   1.0000   1.0000   1.0000
     1.0000   1.0000   1.0000   1.0000   1.0000   1.0000   1.0000   1.0000
     1.0000   1.0000   1.0000   1.0000   1.0000   1.0000   1.0000   1.0000
     1.0000   1.0000   1.0000   1.0000   1.0000   1.0000   1.0000   1.0000

          k = 0.0000-0.5000 2.4395 ( 63874 PWs)   bands (ev):

   -22.4707 -22.2102 -22.2095 -21.4456 -21.4453 -20.2270 -20.2265 -18.6391
   -18.6380 -17.2108 -16.0079 -14.4092 -14.4086 -12.5038 -12.5037 -12.3773
   -12.0676 -12.0657 -11.0410 -11.0407 -11.0380 -11.0378 -10.5099 -10.3009
   -10.3007  -9.6778  -9.6774  -9.4897  -9.4877  -8.7907  -8.6455  -8.6448
    -7.9739  -7.9718  -7.8562  -7.5713  -7.5706  -5.8634  -5.8622  -4.6175

     occupation numbers 
     1.0000   1.0000   1.0000   1.0000   1.0000   1.0000   1.0000   1.0000
     1.0000   1.0000   1.0000   1.0000   1.0000   1.0000   1.0000   1.0000
     1.0000   1.0000   1.0000   1.0000   1.0000   1.0000   1.0000   1.0000
     1.0000   1.0000   1.0000   1.0000   1.0000   1.0000   1.0000   1.0000
     1.0000   1.0000   1.0000   1.0000   1.0000   1.0000   1.0000   1.0000

          k = 0.0000-0.5000 3.6593 ( 63630 PWs)   bands (ev):

   -21.5857 -21.3291 -21.3284 -20.5768 -20.5765 -19.3830 -19.3826 -17.8464
   -17.8452 -16.4481 -15.7906 -14.8798 -14.8793 -14.0042 -14.0041 -13.9049
   -12.9801 -12.9796 -12.8792 -12.8787 -11.5630 -11.5610 -11.1330 -11.1326
   -10.6477  -9.7811  -9.6387  -9.6384  -9.4350  -9.4345  -8.9130  -8.5769
    -8.5761  -7.9711  -7.9707  -6.7176  -6.7171  -5.1020  -5.1009  -3.6201

     occupation numbers 
     1.0000   1.0000   1.0000   1.0000   1.0000   1.0000   1.0000   1.0000
     1.0000   1.0000   1.0000   1.0000   1.0000   1.0000   1.0000   1.0000
     1.0000   1.0000   1.0000   1.0000   1.0000   1.0000   1.0000   1.0000
     1.0000   1.0000   1.0000   1.0000   1.0000   1.0000   1.0000   1.0000
     1.0000   1.0000   1.0000   1.0000   1.0000   1.0000   1.0000   1.0000

          k = 0.0000-0.5000 4.8790 ( 63680 PWs)   bands (ev):

   -20.3661 -20.1160 -20.1152 -19.3867 -19.3865 -18.2598 -18.2593 -17.1691
   -17.1687 -17.1163 -16.2126 -16.2126 -15.8863 -15.8862 -15.3884 -14.8121
   -14.8116 -13.5412 -13.4445 -13.4429 -12.4447 -12.3042 -12.3039 -10.8776
   -10.6483 -10.6480 -10.1218 -10.1206  -9.7597  -9.7596  -7.9543  -7.6600
    -7.6597  -6.8689  -6.8686  -5.8196  -5.8192  -4.9133  -4.9127  -4.5959

     occupation numbers 
     1.0000   1.0000   1.0000   1.0000   1.0000   1.0000   1.0000   1.0000
     1.0000   1.0000   1.0000   1.0000   1.0000   1.0000   1.0000   1.0000
     1.0000   1.0000   1.0000   1.0000   1.0000   1.0000   1.0000   1.0000
     1.0000   1.0000   1.0000   1.0000   1.0000   1.0000   1.0000   1.0000
     1.0000   1.0000   1.0000   1.0000   1.0000   1.0000   1.0000   1.0000

          k = 0.0000-0.5000-6.0988 ( 63732 PWs)   bands (ev):

   -18.8442 -18.8441 -18.6112 -18.6111 -18.6105 -18.6103 -17.9949 -17.9947
   -17.9946 -17.9945 -16.4484 -16.4480 -16.4476 -16.4472 -15.1190 -15.1186
   -15.1178 -15.1171 -14.0449 -14.0447 -12.3212 -12.3194 -11.2540 -11.2534
   -11.2526 -11.2517 -10.1315 -10.1313 -10.1298 -10.1296  -6.3317  -6.3305
    -6.1505  -6.1503  -6.1498  -6.1497  -5.7953  -5.7950  -5.7948  -5.7946

     occupation numbers 
     1.0000   1.0000   1.0000   1.0000   1.0000   1.0000   1.0000   1.0000
     1.0000   1.0000   1.0000   1.0000   1.0000   1.0000   1.0000   1.0000
     1.0000   1.0000   1.0000   1.0000   1.0000   1.0000   1.0000   1.0000
     1.0000   1.0000   1.0000   1.0000   1.0000   1.0000   1.0000   1.0000
     1.0000   1.0000   1.0000   1.0000   1.0000   1.0000   1.0000   1.0000

          k =-0.5000-0.5000 0.0000 ( 64064 PWs)   bands (ev):

   -23.1853 -22.9220 -22.9213 -22.1483 -22.1481 -20.9127 -20.9123 -19.2940
   -19.2930 -17.8237 -16.5576 -14.8157 -14.8152 -12.4330 -12.4325 -11.3222
   -11.0272 -11.0266 -10.5916 -10.5909  -9.8954  -9.6597  -9.6575  -9.1236
    -9.1227  -8.9817  -8.9816  -8.3147  -8.3139  -7.9878  -7.9873  -7.5018
    -7.4994  -6.9783  -6.9751  -6.6066  -6.5999  -6.5985  -6.5105  -5.4336

     occupation numbers 
     1.0000   1.0000   1.0000   1.0000   1.0000   1.0000   1.0000   1.0000
     1.0000   1.0000   1.0000   1.0000   1.0000   1.0000   1.0000   1.0000
     1.0000   1.0000   1.0000   1.0000   1.0000   1.0000   1.0000   1.0000
     1.0000   1.0000   1.0000   1.0000   1.0000   1.0000   1.0000   1.0000
     1.0000   1.0000   1.0000   1.0000   1.0000   1.0000   1.0000   1.0000

          k =-0.5000-0.5000 1.2198 ( 64004 PWs)   bands (ev):

   -23.0062 -22.7435 -22.7428 -21.9721 -21.9718 -20.7406 -20.7402 -19.1293
   -19.1282 -17.6703 -16.4094 -14.6940 -14.6935 -12.3734 -12.3730 -11.1149
   -10.8276 -10.8271 -10.6575 -10.5193 -10.5186 -10.4128 -10.4107  -9.7006
    -9.7005  -9.1428  -9.1421  -8.5758  -8.5753  -8.1252  -8.1245  -7.9616
    -7.9591  -7.4002  -7.3975  -7.1974  -6.9382  -6.4093  -6.4080  -5.2283

     occupation numbers 
     1.0000   1.0000   1.0000   1.0000   1.0000   1.0000   1.0000   1.0000
     1.0000   1.0000   1.0000   1.0000   1.0000   1.0000   1.0000   1.0000
     1.0000   1.0000   1.0000   1.0000   1.0000   1.0000   1.0000   1.0000
     1.0000   1.0000   1.0000   1.0000   1.0000   1.0000   1.0000   1.0000
     1.0000   1.0000   1.0000   1.0000   1.0000   1.0000   1.0000   1.0000

          k =-0.5000-0.5000 2.4395 ( 63868 PWs)   bands (ev):

   -22.4707 -22.2102 -22.2095 -21.4456 -21.4453 -20.2270 -20.2265 -18.6391
   -18.6380 -17.2108 -16.0079 -14.4092 -14.4086 -12.5038 -12.5036 -12.3772
   -12.0676 -12.0657 -11.0410 -11.0407 -11.0380 -11.0378 -10.5099 -10.3008
   -10.3007  -9.6778  -9.6774  -9.4897  -9.4877  -8.7907  -8.6455  -8.6448
    -7.9739  -7.9718  -7.8562  -7.5713  -7.5706  -5.8634  -5.8622  -4.6176

     occupation numbers 
     1.0000   1.0000   1.0000   1.0000   1.0000   1.0000   1.0000   1.0000
     1.0000   1.0000   1.0000   1.0000   1.0000   1.0000   1.0000   1.0000
     1.0000   1.0000   1.0000   1.0000   1.0000   1.0000   1.0000   1.0000
     1.0000   1.0000   1.0000   1.0000   1.0000   1.0000   1.0000   1.0000
     1.0000   1.0000   1.0000   1.0000   1.0000   1.0000   1.0000   1.0000

          k =-0.5000-0.5000 3.6593 ( 63660 PWs)   bands (ev):

   -21.5857 -21.3291 -21.3284 -20.5768 -20.5765 -19.3830 -19.3826 -17.8464
   -17.8452 -16.4481 -15.7906 -14.8798 -14.8793 -14.0042 -14.0041 -13.9049
   -12.9801 -12.9795 -12.8792 -12.8788 -11.5630 -11.5610 -11.1330 -11.1326
   -10.6477  -9.7811  -9.6387  -9.6384  -9.4351  -9.4345  -8.9130  -8.5769
    -8.5761  -7.9711  -7.9707  -6.7177  -6.7171  -5.1020  -5.1009  -3.6201

     occupation numbers 
     1.0000   1.0000   1.0000   1.0000   1.0000   1.0000   1.0000   1.0000
     1.0000   1.0000   1.0000   1.0000   1.0000   1.0000   1.0000   1.0000
     1.0000   1.0000   1.0000   1.0000   1.0000   1.0000   1.0000   1.0000
     1.0000   1.0000   1.0000   1.0000   1.0000   1.0000   1.0000   1.0000
     1.0000   1.0000   1.0000   1.0000   1.0000   1.0000   1.0000   1.0000

          k =-0.5000-0.5000 4.8790 ( 63620 PWs)   bands (ev):

   -20.3661 -20.1160 -20.1152 -19.3867 -19.3865 -18.2598 -18.2593 -17.1691
   -17.1687 -17.1163 -16.2126 -16.2125 -15.8863 -15.8861 -15.3884 -14.8121
   -14.8116 -13.5412 -13.4445 -13.4429 -12.4447 -12.3042 -12.3039 -10.8775
   -10.6483 -10.6480 -10.1217 -10.1206  -9.7597  -9.7596  -7.9543  -7.6600
    -7.6597  -6.8689  -6.8686  -5.8196  -5.8192  -4.9133  -4.9127  -4.5959

     occupation numbers 
     1.0000   1.0000   1.0000   1.0000   1.0000   1.0000   1.0000   1.0000
     1.0000   1.0000   1.0000   1.0000   1.0000   1.0000   1.0000   1.0000
     1.0000   1.0000   1.0000   1.0000   1.0000   1.0000   1.0000   1.0000
     1.0000   1.0000   1.0000   1.0000   1.0000   1.0000   1.0000   1.0000
     1.0000   1.0000   1.0000   1.0000   1.0000   1.0000   1.0000   1.0000

          k =-0.5000-0.5000-6.0988 ( 63856 PWs)   bands (ev):

   -18.8442 -18.8441 -18.6112 -18.6111 -18.6105 -18.6103 -17.9949 -17.9947
   -17.9946 -17.9945 -16.4484 -16.4480 -16.4476 -16.4472 -15.1190 -15.1186
   -15.1178 -15.1171 -14.0449 -14.0447 -12.3212 -12.3194 -11.2541 -11.2534
   -11.2526 -11.2518 -10.1315 -10.1313 -10.1298 -10.1297  -6.3317  -6.3306
    -6.1506  -6.1504  -6.1499  -6.1497  -5.7954  -5.7950  -5.7948  -5.7946

     occupation numbers 
     1.0000   1.0000   1.0000   1.0000   1.0000   1.0000   1.0000   1.0000
     1.0000   1.0000   1.0000   1.0000   1.0000   1.0000   1.0000   1.0000
     1.0000   1.0000   1.0000   1.0000   1.0000   1.0000   1.0000   1.0000
     1.0000   1.0000   1.0000   1.0000   1.0000   1.0000   1.0000   1.0000
     1.0000   1.0000   1.0000   1.0000   1.0000   1.0000   1.0000   1.0000

          k =-0.5000 0.0000 0.0000 ( 64074 PWs)   bands (ev):

   -23.1853 -22.9220 -22.9213 -22.1483 -22.1481 -20.9127 -20.9123 -19.2940
   -19.2930 -17.8237 -16.5576 -14.8157 -14.8152 -12.4330 -12.4326 -11.3222
   -11.0272 -11.0267 -10.5916 -10.5909  -9.8954  -9.6597  -9.6575  -9.1236
    -9.1227  -8.9817  -8.9816  -8.3147  -8.3139  -7.9879  -7.9873  -7.5018
    -7.4994  -6.9783  -6.9752  -6.6066  -6.5999  -6.5985  -6.5105  -5.4336

     occupation numbers 
     1.0000   1.0000   1.0000   1.0000   1.0000   1.0000   1.0000   1.0000
     1.0000   1.0000   1.0000   1.0000   1.0000   1.0000   1.0000   1.0000
     1.0000   1.0000   1.0000   1.0000   1.0000   1.0000   1.0000   1.0000
     1.0000   1.0000   1.0000   1.0000   1.0000   1.0000   1.0000   1.0000
     1.0000   1.0000   1.0000   1.0000   1.0000   1.0000   1.0000   1.0000

          k =-0.5000 0.0000-1.2198 ( 63952 PWs)   bands (ev):

   -23.0062 -22.7435 -22.7428 -21.9721 -21.9718 -20.7406 -20.7402 -19.1293
   -19.1282 -17.6703 -16.4094 -14.6940 -14.6935 -12.3734 -12.3730 -11.1149
   -10.8276 -10.8271 -10.6574 -10.5193 -10.5186 -10.4128 -10.4107  -9.7006
    -9.7005  -9.1428  -9.1421  -8.5759  -8.5753  -8.1252  -8.1244  -7.9616
    -7.9590  -7.4002  -7.3975  -7.1975  -6.9382  -6.4092  -6.4080  -5.2283

     occupation numbers 
     1.0000   1.0000   1.0000   1.0000   1.0000   1.0000   1.0000   1.0000
     1.0000   1.0000   1.0000   1.0000   1.0000   1.0000   1.0000   1.0000
     1.0000   1.0000   1.0000   1.0000   1.0000   1.0000   1.0000   1.0000
     1.0000   1.0000   1.0000   1.0000   1.0000   1.0000   1.0000   1.0000
     1.0000   1.0000   1.0000   1.0000   1.0000   1.0000   1.0000   1.0000

          k =-0.5000 0.0000-2.4395 ( 63874 PWs)   bands (ev):

   -22.4707 -22.2102 -22.2095 -21.4456 -21.4453 -20.2270 -20.2265 -18.6391
   -18.6380 -17.2108 -16.0079 -14.4092 -14.4086 -12.5038 -12.5037 -12.3772
   -12.0676 -12.0657 -11.0411 -11.0407 -11.0380 -11.0378 -10.5099 -10.3008
   -10.3007  -9.6779  -9.6774  -9.4897  -9.4877  -8.7907  -8.6455  -8.6448
    -7.9739  -7.9719  -7.8562  -7.5713  -7.5706  -5.8634  -5.8622  -4.6176

     occupation numbers 
     1.0000   1.0000   1.0000   1.0000   1.0000   1.0000   1.0000   1.0000
     1.0000   1.0000   1.0000   1.0000   1.0000   1.0000   1.0000   1.0000
     1.0000   1.0000   1.0000   1.0000   1.0000   1.0000   1.0000   1.0000
     1.0000   1.0000   1.0000   1.0000   1.0000   1.0000   1.0000   1.0000
     1.0000   1.0000   1.0000   1.0000   1.0000   1.0000   1.0000   1.0000

          k =-0.5000 0.0000-3.6593 ( 63630 PWs)   bands (ev):

   -21.5857 -21.3291 -21.3284 -20.5768 -20.5765 -19.3830 -19.3826 -17.8464
   -17.8452 -16.4481 -15.7906 -14.8797 -14.8793 -14.0042 -14.0041 -13.9049
   -12.9801 -12.9796 -12.8792 -12.8788 -11.5630 -11.5610 -11.1329 -11.1326
   -10.6477  -9.7811  -9.6387  -9.6384  -9.4350  -9.4345  -8.9130  -8.5769
    -8.5761  -7.9711  -7.9707  -6.7176  -6.7171  -5.1020  -5.1008  -3.6201

     occupation numbers 
     1.0000   1.0000   1.0000   1.0000   1.0000   1.0000   1.0000   1.0000
     1.0000   1.0000   1.0000   1.0000   1.0000   1.0000   1.0000   1.0000
     1.0000   1.0000   1.0000   1.0000   1.0000   1.0000   1.0000   1.0000
     1.0000   1.0000   1.0000   1.0000   1.0000   1.0000   1.0000   1.0000
     1.0000   1.0000   1.0000   1.0000   1.0000   1.0000   1.0000   1.0000

          k =-0.5000 0.0000-4.8790 ( 63680 PWs)   bands (ev):

   -20.3661 -20.1160 -20.1152 -19.3867 -19.3865 -18.2598 -18.2593 -17.1691
   -17.1687 -17.1163 -16.2126 -16.2126 -15.8863 -15.8862 -15.3884 -14.8121
   -14.8117 -13.5412 -13.4445 -13.4429 -12.4447 -12.3042 -12.3039 -10.8776
   -10.6483 -10.6480 -10.1218 -10.1206  -9.7597  -9.7596  -7.9543  -7.6601
    -7.6597  -6.8689  -6.8686  -5.8196  -5.8192  -4.9133  -4.9127  -4.5959

     occupation numbers 
     1.0000   1.0000   1.0000   1.0000   1.0000   1.0000   1.0000   1.0000
     1.0000   1.0000   1.0000   1.0000   1.0000   1.0000   1.0000   1.0000
     1.0000   1.0000   1.0000   1.0000   1.0000   1.0000   1.0000   1.0000
     1.0000   1.0000   1.0000   1.0000   1.0000   1.0000   1.0000   1.0000
     1.0000   1.0000   1.0000   1.0000   1.0000   1.0000   1.0000   1.0000

          k =-0.5000 0.0000 6.0988 ( 63732 PWs)   bands (ev):

   -18.8442 -18.8441 -18.6112 -18.6111 -18.6105 -18.6103 -17.9949 -17.9947
   -17.9946 -17.9945 -16.4484 -16.4480 -16.4476 -16.4472 -15.1190 -15.1186
   -15.1178 -15.1171 -14.0449 -14.0447 -12.3212 -12.3194 -11.2540 -11.2534
   -11.2526 -11.2517 -10.1315 -10.1313 -10.1298 -10.1296  -6.3317  -6.3305
    -6.1505  -6.1503  -6.1498  -6.1497  -5.7953  -5.7950  -5.7948  -5.7946

     occupation numbers 
     1.0000   1.0000   1.0000   1.0000   1.0000   1.0000   1.0000   1.0000
     1.0000   1.0000   1.0000   1.0000   1.0000   1.0000   1.0000   1.0000
     1.0000   1.0000   1.0000   1.0000   1.0000   1.0000   1.0000   1.0000
     1.0000   1.0000   1.0000   1.0000   1.0000   1.0000   1.0000   1.0000
     1.0000   1.0000   1.0000   1.0000   1.0000   1.0000   1.0000   1.0000

     highest occupied level (ev):    -3.6201

!    total energy              =    -368.61238134 Ry

     total all-electron energy =     -1523.894326 Ry
     estimated scf accuracy    <          3.8E-10 Ry

     The total energy is the sum of the following terms:
     one-electron contribution =   -4472.11078742 Ry
     hartree contribution      =    2247.00469540 Ry
     xc contribution           =     -92.61403298 Ry
     ewald contribution        =    2072.44288275 Ry
     one-center paw contrib.   =    -123.33513908 Ry
      -> PAW hartree energy AE =      47.03464051 Ry
      -> PAW hartree energy PS =     -46.99163146 Ry
      -> PAW xc energy AE      =     -53.26891303 Ry
      -> PAW xc energy PS      =      22.39212940 Ry
      -> total E_H with PAW    =    2247.04770445 Ry
      -> total E_XC with PAW   =    -123.49081661 Ry

     convergence has been achieved in   3 iterations

     Writing output data file ./tmp/carbon_nanotube.save/

     init_run     :      9.38s CPU     11.54s WALL (       1 calls)
     electrons    :   1572.89s CPU   1595.14s WALL (       1 calls)

     Called by init_run:
     wfcinit      :      1.29s CPU      2.92s WALL (       1 calls)
     potinit      :      1.80s CPU      1.96s WALL (       1 calls)
     hinit0       :      2.94s CPU      2.99s WALL (       1 calls)

     Called by electrons:
     c_bands      :   1429.16s CPU   1447.16s WALL (       4 calls)
     sum_band     :    130.16s CPU    133.24s WALL (       4 calls)
     v_of_rho     :      5.52s CPU      5.99s WALL (       4 calls)
     v_h          :      0.51s CPU      0.54s WALL (       4 calls)
     v_xc         :      5.01s CPU      5.44s WALL (       4 calls)
     newd         :      9.59s CPU     10.42s WALL (       4 calls)
     PAW_pot      :      0.89s CPU      0.89s WALL (       4 calls)
     mix_rho      :      0.57s CPU      0.63s WALL (       4 calls)

     Called by c_bands:
     init_us_2    :      5.22s CPU      5.27s WALL (     192 calls)
     cegterg      :   1416.60s CPU   1434.49s WALL (      96 calls)

     Called by sum_band:
     sum_band:wei :      0.00s CPU      0.00s WALL (       4 calls)
     sum_band:loo :    115.63s CPU    117.77s WALL (       4 calls)
     sum_band:buf :      0.59s CPU      0.60s WALL (      96 calls)
     sum_band:ini :      2.63s CPU      2.63s WALL (      96 calls)
     sum_band:cal :     42.60s CPU     42.60s WALL (      96 calls)
     sum_band:bec :      0.01s CPU      0.01s WALL (      96 calls)
     addusdens    :     13.59s CPU     14.49s WALL (       4 calls)
     addusd:skk   :      0.26s CPU      0.53s WALL (       4 calls)
     addusd:dgemm :     11.17s CPU     11.70s WALL (       4 calls)
     addusd:qvan2 :      1.86s CPU      1.87s WALL (       4 calls)

     Called by *egterg:
     cdiaghg      :      2.47s CPU      2.51s WALL (     507 calls)
     cegterg:over :    131.25s CPU    131.34s WALL (     459 calls)
     cegterg:upda :     69.16s CPU     69.45s WALL (     459 calls)
     cegterg:last :    172.24s CPU    172.28s WALL (     352 calls)
     cdiaghg:chol :      0.17s CPU      0.18s WALL (     507 calls)
     cdiaghg:inve :      0.02s CPU      0.02s WALL (     507 calls)
     cdiaghg:para :      0.67s CPU      0.67s WALL (    1014 calls)
     h_psi        :    863.63s CPU    880.50s WALL (     555 calls)
     s_psi        :    149.60s CPU    149.73s WALL (     555 calls)
     g_psi        :      3.57s CPU      3.57s WALL (     459 calls)

     Called by h_psi:
     h_psi:calbec :    164.52s CPU    164.65s WALL (     555 calls)
     vloc_psi     :    545.96s CPU    562.22s WALL (     555 calls)
     add_vuspsi   :    151.06s CPU    151.11s WALL (     555 calls)

     General routines
     calbec       :    207.11s CPU    207.25s WALL (     651 calls)
     fft          :      4.88s CPU      5.16s WALL (      51 calls)
     ffts         :      0.26s CPU      0.27s WALL (       8 calls)
     fftw         :    532.20s CPU    548.48s WALL (   35446 calls)
     interpolate  :      0.61s CPU      0.64s WALL (       4 calls)

     Parallel routines
     fft_scatt_xy :     90.40s CPU     93.05s WALL (   35505 calls)
     fft_scatt_yz :    149.98s CPU    158.50s WALL (   35505 calls)

     PAW routines
     PAW_pot      :      0.89s CPU      0.89s WALL (       4 calls)
     PAW_symme    :      0.00s CPU      0.00s WALL (       7 calls)

     PWSCF        :  26m23.94s CPU  26m51.51s WALL


   This run was terminated on:  16:41: 3   1Sep2024            

=------------------------------------------------------------------------------=
   JOB DONE.
=------------------------------------------------------------------------------=
