
     Program BANDS v.6.7MaX starts on  1Sep2024 at 23: 1:26 

     This program is part of the open-source Quantum ESPRESSO suite
     for quantum simulation of materials; please cite
         "P. Giannozzi et al., J. Phys.:Condens. Matter 21 395502 (2009);
         "P. Giannozzi et al., J. Phys.:Condens. Matter 29 465901 (2017);
          URL http://www.quantum-espresso.org", 
     in publications or presentations arising from this work. More details at
     http://www.quantum-espresso.org/quote

     Parallel version (MPI), running on     4 processors

     MPI processes distributed on     1 nodes
     R & G space division:  proc/nbgrp/npool/nimage =       4

     Reading xml data from directory:

     /home/alessandro_rotondi/q-e/projects/carbon_nanotube/tmp/carbon_nanotube.save/
     file C.UPF: wavefunction(s)  3d renormalized

     IMPORTANT: XC functional enforced from input :
     Exchange-correlation= PBESOL
                           (   1   4  10   8   0   0   0)
     Any further DFT definition will be discarded
     Please, verify this is what you really want


     Parallelization info
     --------------------
     sticks:   dense  smooth     PW     G-vecs:    dense   smooth      PW
     Min       20842   10233   3140               371411   127792   21663
     Max       20844   10239   3142               371412   127793   21664
     Sum       83373   40945  12565              1485647   511171   86655

     Reading collected, re-writing distributed wavefunctions
     high-symmetry point:  0.0000 0.0000 0.0000   x coordinate   0.0000
     high-symmetry point:  0.0000 0.0000 4.8790   x coordinate   4.8790
     high-symmetry point:  0.0000 0.0000-6.0988   x coordinate   4.8790
     high-symmetry point:  0.0000-0.5000 0.0000   x coordinate   4.8790
     high-symmetry point:  0.0000-0.5000 4.8790   x coordinate   9.7580
     high-symmetry point:  0.0000-0.5000-6.0988   x coordinate   9.7580
     high-symmetry point: -0.5000-0.5000 0.0000   x coordinate   9.7580
     high-symmetry point: -0.5000-0.5000 4.8790   x coordinate  14.6371
     high-symmetry point: -0.5000-0.5000-6.0988   x coordinate  14.6371
     high-symmetry point: -0.5000 0.0000 0.0000   x coordinate  14.6371
     high-symmetry point: -0.5000 0.0000-4.8790   x coordinate  19.5161
     high-symmetry point: -0.5000 0.0000 6.0988   x coordinate  19.5161

     Plottable bands (eV) written to file carbon_nanotube_bands.dat.gnu
     Bands written to file carbon_nanotube_bands.dat

 **************************************************************************

                    xk=(   0.00000,   0.00000,   0.00000  )

     point group C_s (m)    
     there are  2 classes
     the character table:

       E     s    
A'     1.00  1.00
A''    1.00 -1.00

     the symmetry operations in each class and the name of the first element:

     E        1
                                                                 
     s        2
                                                                 

     Band symmetry, C_s (m)     point group:

     e(  1 -  1) =    -23.24956  eV     1   --> A'             
     e(  2 -  2) =    -22.97813  eV     1   --> A'             
     e(  3 -  3) =    -22.97783  eV     1   --> A'             
     e(  4 -  5) =    -22.18289  eV     2   -->   2 A'             
     e(  6 -  7) =    -20.91478  eV     2   -->   2 A'             
     e(  8 -  8) =    -19.24950  eV     1   --> A'             
     e(  9 -  9) =    -19.24936  eV     1   --> A'             
     e( 10 - 10) =    -17.64042  eV     1   --> A'             
     e( 11 - 11) =    -16.68242  eV     1   --> A'             
     e( 12 - 12) =    -14.81095  eV     1   --> A'             
     e( 13 - 13) =    -14.81068  eV     1   --> A'             
     e( 14 - 14) =    -12.41673  eV     1   --> A'             
     e( 15 - 15) =    -12.41649  eV     1   --> A'             
     e( 16 - 16) =    -11.54193  eV     1   --> A'             
     e( 17 - 17) =    -11.23461  eV     1   --> A'             
     e( 18 - 18) =    -11.23411  eV     1   --> A'             
     e( 19 - 19) =    -10.70309  eV     1   --> A'             
     e( 20 - 20) =    -10.70289  eV     1   --> A'             
     e( 21 - 21) =    -10.23350  eV     1   --> A''            
     e( 22 - 22) =     -9.99530  eV     1   --> A''            
     e( 23 - 23) =     -9.99459  eV     1   --> A''            
     e( 24 - 24) =     -9.30121  eV     1   --> A''            
     e( 25 - 25) =     -9.30063  eV     1   --> A''            
     e( 26 - 26) =     -9.18397  eV     1   --> A'             
     e( 27 - 27) =     -9.18367  eV     1   --> A'             
     e( 28 - 28) =     -8.44474  eV     1   --> A'             
     e( 29 - 29) =     -8.44433  eV     1   --> A'             
     e( 30 - 30) =     -8.26805  eV     1   --> A''            
     e( 31 - 31) =     -8.26730  eV     1   --> A''            
     e( 32 - 32) =     -7.53835  eV     1   --> A'             
     e( 33 - 33) =     -7.53768  eV     1   --> A'             
     e( 34 - 34) =     -7.20740  eV     1   --> A''            
     e( 35 - 35) =     -7.20695  eV     1   --> A''            
     e( 36 - 36) =     -6.72069  eV     1   --> A''            
     e( 37 - 37) =     -6.68215  eV     1   --> A'             
     e( 38 - 38) =     -6.67635  eV     1   --> A'             
     e( 39 - 39) =     -6.67614  eV     1   --> A'             
     e( 40 - 40) =     -5.45696  eV     1   --> A'             

 **************************************************************************

 **************************************************************************

                    xk=(   0.00000,   0.00000,   1.21976  )

     point group C_1 (1)    
     there are  1 classes
     the character table:

       E    
A      1.00

     the symmetry operations in each class and the name of the first element:

     E        1
                                                                 

     Band symmetry, C_1 (1)     point group:

     e(  1 -  1) =    -23.07138  eV     1   --> A              
     e(  2 -  2) =    -22.80075  eV     1   --> A              
     e(  3 -  3) =    -22.80046  eV     1   --> A              
     e(  4 -  4) =    -22.00783  eV     1   --> A              
     e(  5 -  5) =    -22.00771  eV     1   --> A              
     e(  6 -  7) =    -20.74389  eV     2   -->   2 A              
     e(  8 -  8) =    -19.08620  eV     1   --> A              
     e(  9 -  9) =    -19.08609  eV     1   --> A              
     e( 10 - 10) =    -17.49155  eV     1   --> A              
     e( 11 - 11) =    -16.53184  eV     1   --> A              
     e( 12 - 12) =    -14.69091  eV     1   --> A              
     e( 13 - 13) =    -14.69040  eV     1   --> A              
     e( 14 - 14) =    -12.36184  eV     1   --> A              
     e( 15 - 15) =    -12.36145  eV     1   --> A              
     e( 16 - 16) =    -11.33585  eV     1   --> A              
     e( 17 - 18) =    -11.03418  eV     2   -->   2 A              
     e( 19 - 19) =    -10.97327  eV     1   --> A              
     e( 20 - 20) =    -10.72068  eV     1   --> A              
     e( 21 - 21) =    -10.72048  eV     1   --> A              
     e( 22 - 22) =    -10.61936  eV     1   --> A              
     e( 23 - 23) =    -10.61917  eV     1   --> A              
     e( 24 - 24) =     -9.98392  eV     1   --> A              
     e( 25 - 25) =     -9.98285  eV     1   --> A              
     e( 26 - 26) =     -9.27515  eV     1   --> A              
     e( 27 - 27) =     -9.27503  eV     1   --> A              
     e( 28 - 28) =     -8.77471  eV     1   --> A              
     e( 29 - 29) =     -8.77429  eV     1   --> A              
     e( 30 - 30) =     -8.25815  eV     1   --> A              
     e( 31 - 31) =     -8.25782  eV     1   --> A              
     e( 32 - 32) =     -8.10405  eV     1   --> A              
     e( 33 - 33) =     -8.10371  eV     1   --> A              
     e( 34 - 34) =     -7.51757  eV     1   --> A              
     e( 35 - 35) =     -7.51717  eV     1   --> A              
     e( 36 - 36) =     -7.37529  eV     1   --> A              
     e( 37 - 37) =     -7.03654  eV     1   --> A              
     e( 38 - 38) =     -6.48807  eV     1   --> A              
     e( 39 - 39) =     -6.48771  eV     1   --> A              
     e( 40 - 40) =     -5.25381  eV     1   --> A              

 **************************************************************************

 **************************************************************************

                    xk=(   0.00000,   0.00000,   2.43951  )

     Band symmetry, C_1 (1)     point group:

     e(  1 -  1) =    -22.53909  eV     1   --> A              
     e(  2 -  2) =    -22.27075  eV     1   --> A              
     e(  3 -  3) =    -22.27044  eV     1   --> A              
     e(  4 -  5) =    -21.48479  eV     2   -->   2 A              
     e(  6 -  7) =    -20.23379  eV     2   -->   2 A              
     e(  8 -  8) =    -18.60045  eV     1   --> A              
     e(  9 -  9) =    -18.60026  eV     1   --> A              
     e( 10 - 10) =    -17.04542  eV     1   --> A              
     e( 11 - 11) =    -16.11876  eV     1   --> A              
     e( 12 - 12) =    -14.40858  eV     1   --> A              
     e( 13 - 13) =    -14.40822  eV     1   --> A              
     e( 14 - 14) =    -12.65131  eV     1   --> A              
     e( 15 - 15) =    -12.55255  eV     1   --> A              
     e( 16 - 16) =    -12.55226  eV     1   --> A              
     e( 17 - 17) =    -12.32641  eV     1   --> A              
     e( 18 - 18) =    -12.32616  eV     1   --> A              
     e( 19 - 19) =    -11.21612  eV     1   --> A              
     e( 20 - 20) =    -11.21587  eV     1   --> A              
     e( 21 - 21) =    -11.16521  eV     1   --> A              
     e( 22 - 22) =    -11.16495  eV     1   --> A              
     e( 23 - 23) =    -10.73179  eV     1   --> A              
     e( 24 - 24) =    -10.49918  eV     1   --> A              
     e( 25 - 25) =    -10.49862  eV     1   --> A              
     e( 26 - 26) =     -9.82630  eV     1   --> A              
     e( 27 - 27) =     -9.82588  eV     1   --> A              
     e( 28 - 28) =     -9.63541  eV     1   --> A              
     e( 29 - 29) =     -9.63503  eV     1   --> A              
     e( 30 - 30) =     -8.90695  eV     1   --> A              
     e( 31 - 31) =     -8.77311  eV     1   --> A              
     e( 32 - 32) =     -8.77264  eV     1   --> A              
     e( 33 - 33) =     -8.07937  eV     1   --> A              
     e( 34 - 34) =     -8.07923  eV     1   --> A              
     e( 35 - 35) =     -8.00068  eV     1   --> A              
     e( 36 - 36) =     -7.71126  eV     1   --> A              
     e( 37 - 37) =     -7.71112  eV     1   --> A              
     e( 38 - 38) =     -5.95110  eV     1   --> A              
     e( 39 - 39) =     -5.95063  eV     1   --> A              
     e( 40 - 40) =     -4.64677  eV     1   --> A              

 **************************************************************************

 **************************************************************************

                    xk=(   0.00000,   0.00000,   3.65927  )

     Band symmetry, C_1 (1)     point group:

     e(  1 -  1) =    -21.65968  eV     1   --> A              
     e(  2 -  2) =    -21.39537  eV     1   --> A              
     e(  3 -  3) =    -21.39508  eV     1   --> A              
     e(  4 -  4) =    -20.62139  eV     1   --> A              
     e(  5 -  5) =    -20.62126  eV     1   --> A              
     e(  6 -  7) =    -19.39501  eV     2   -->   2 A              
     e(  8 -  8) =    -17.81447  eV     1   --> A              
     e(  9 -  9) =    -17.81429  eV     1   --> A              
     e( 10 - 10) =    -16.30445  eV     1   --> A              
     e( 11 - 11) =    -15.86254  eV     1   --> A              
     e( 12 - 12) =    -14.96473  eV     1   --> A              
     e( 13 - 13) =    -14.96447  eV     1   --> A              
     e( 14 - 14) =    -14.16681  eV     1   --> A              
     e( 15 - 15) =    -14.12852  eV     1   --> A              
     e( 16 - 16) =    -14.12834  eV     1   --> A              
     e( 17 - 17) =    -13.12192  eV     1   --> A              
     e( 18 - 18) =    -13.12171  eV     1   --> A              
     e( 19 - 19) =    -12.99421  eV     1   --> A              
     e( 20 - 20) =    -12.99401  eV     1   --> A              
     e( 21 - 21) =    -11.65345  eV     1   --> A              
     e( 22 - 22) =    -11.65314  eV     1   --> A              
     e( 23 - 23) =    -11.20970  eV     1   --> A              
     e( 24 - 24) =    -11.20948  eV     1   --> A              
     e( 25 - 25) =    -10.69140  eV     1   --> A              
     e( 26 - 26) =     -9.98535  eV     1   --> A              
     e( 27 - 27) =     -9.73505  eV     1   --> A              
     e( 28 - 28) =     -9.73449  eV     1   --> A              
     e( 29 - 29) =     -9.60629  eV     1   --> A              
     e( 30 - 30) =     -9.60577  eV     1   --> A              
     e( 31 - 31) =     -9.10726  eV     1   --> A              
     e( 32 - 32) =     -8.73950  eV     1   --> A              
     e( 33 - 33) =     -8.73937  eV     1   --> A              
     e( 34 - 34) =     -8.14719  eV     1   --> A              
     e( 35 - 35) =     -8.14678  eV     1   --> A              
     e( 36 - 36) =     -6.86748  eV     1   --> A              
     e( 37 - 37) =     -6.86699  eV     1   --> A              
     e( 38 - 38) =     -5.21391  eV     1   --> A              
     e( 39 - 39) =     -5.21353  eV     1   --> A              
     e( 40 - 40) =     -3.65352  eV     1   --> A              

 **************************************************************************

 **************************************************************************

                    xk=(   0.00000,   0.00000,   4.87902  )

     Band symmetry, C_1 (1)     point group:

     e(  1 -  1) =    -20.44869  eV     1   --> A              
     e(  2 -  2) =    -20.18987  eV     1   --> A              
     e(  3 -  3) =    -20.18954  eV     1   --> A              
     e(  4 -  4) =    -19.43738  eV     1   --> A              
     e(  5 -  5) =    -19.43725  eV     1   --> A              
     e(  6 -  7) =    -18.27284  eV     2   -->   2 A              
     e(  8 -  8) =    -17.21098  eV     1   --> A              
     e(  9 -  9) =    -17.19179  eV     1   --> A              
     e( 10 - 10) =    -17.19164  eV     1   --> A              
     e( 11 - 11) =    -16.28433  eV     1   --> A              
     e( 12 - 12) =    -16.28423  eV     1   --> A              
     e( 13 - 13) =    -16.00591  eV     1   --> A              
     e( 14 - 14) =    -16.00560  eV     1   --> A              
     e( 15 - 15) =    -15.27548  eV     1   --> A              
     e( 16 - 16) =    -14.90245  eV     1   --> A              
     e( 17 - 17) =    -14.90189  eV     1   --> A              
     e( 18 - 18) =    -13.75302  eV     1   --> A              
     e( 19 - 19) =    -13.49569  eV     1   --> A              
     e( 20 - 20) =    -13.49557  eV     1   --> A              
     e( 21 - 21) =    -12.42828  eV     1   --> A              
     e( 22 - 22) =    -12.40850  eV     1   --> A              
     e( 23 - 23) =    -12.40823  eV     1   --> A              
     e( 24 - 24) =    -11.06905  eV     1   --> A              
     e( 25 - 25) =    -10.73365  eV     1   --> A              
     e( 26 - 26) =    -10.73335  eV     1   --> A              
     e( 27 - 27) =    -10.25086  eV     1   --> A              
     e( 28 - 28) =    -10.25067  eV     1   --> A              
     e( 29 - 29) =     -9.86331  eV     1   --> A              
     e( 30 - 30) =     -9.86312  eV     1   --> A              
     e( 31 - 31) =     -8.17467  eV     1   --> A              
     e( 32 - 32) =     -7.87116  eV     1   --> A              
     e( 33 - 33) =     -7.87102  eV     1   --> A              
     e( 34 - 34) =     -7.05856  eV     1   --> A              
     e( 35 - 35) =     -7.05832  eV     1   --> A              
     e( 36 - 36) =     -5.98662  eV     1   --> A              
     e( 37 - 37) =     -5.98646  eV     1   --> A              
     e( 38 - 38) =     -5.09327  eV     1   --> A              
     e( 39 - 39) =     -5.09313  eV     1   --> A              
     e( 40 - 40) =     -4.80013  eV     1   --> A              

 **************************************************************************

 **************************************************************************

                    xk=(   0.00000,   0.00000,  -6.09878  )

     point group C_s (m)    
     there are  2 classes
     the character table:

       E     s    
A'     1.00  1.00
A''    1.00 -1.00

     the symmetry operations in each class and the name of the first element:

     E        1
                                                                 
     s        2
                                                                 

     Band symmetry, C_s (m)     point group:

     e(  1 -  1) =    -18.93626  eV     1   --> A'             
     e(  2 -  2) =    -18.93610  eV     1   --> A''            
     e(  3 -  3) =    -18.69162  eV     1   --> A'             
     e(  4 -  4) =    -18.69143  eV     1   --> A''            
     e(  5 -  5) =    -18.69129  eV     1   --> A'             
     e(  6 -  6) =    -18.69114  eV     1   --> A''            
     e(  7 -  7) =    -18.03398  eV     1   --> A'             
     e(  8 -  9) =    -18.03379  eV     2   --> A'             
     e(  8 -  9) =    -18.03379  eV     2   --> A''            
     e( 10 - 10) =    -18.03362  eV     1   --> A''            
     e( 11 - 14) =    -16.53973  eV     4   -->   2 A'             
     e( 11 - 14) =    -16.53973  eV     4   -->   2 A''            
     e( 15 - 17) =    -15.14241  eV     3   -->   2 A'             
     e( 15 - 17) =    -15.14241  eV     3   --> A''            
     e( 18 - 18) =    -15.14215  eV     1   --> A''            
     e( 19 - 19) =    -13.97315  eV     1   --> A'             
     e( 20 - 20) =    -13.97302  eV     1   --> A''            
     e( 21 - 21) =    -12.51678  eV     1   --> A''            
     e( 22 - 22) =    -12.51663  eV     1   --> A'             
     e( 23 - 23) =    -11.36970  eV     1   --> A''            
     e( 24 - 24) =    -11.36957  eV     1   --> A'             
     e( 25 - 26) =    -11.36946  eV     2   --> A'             
     e( 25 - 26) =    -11.36946  eV     2   --> A''            
     e( 27 - 27) =    -10.23534  eV     1   --> A''            
     e( 28 - 28) =    -10.23514  eV     1   --> A'             
     e( 29 - 30) =    -10.23490  eV     2   --> A'             
     e( 29 - 30) =    -10.23490  eV     2   --> A''            
     e( 31 - 31) =     -6.54726  eV     1   --> A''            
     e( 32 - 32) =     -6.54712  eV     1   --> A'             
     e( 33 - 34) =     -6.35973  eV     2   --> A'             
     e( 33 - 34) =     -6.35973  eV     2   --> A''            
     e( 35 - 36) =     -6.35919  eV     2   --> A'             
     e( 35 - 36) =     -6.35919  eV     2   --> A''            
     e( 37 - 37) =     -5.98407  eV     1   --> A'             
     e( 38 - 40) =     -5.98390  eV     3   --> A'             
     e( 38 - 40) =     -5.98390  eV     3   -->   2 A''            

 **************************************************************************

 **************************************************************************

                    xk=(   0.00000,  -0.50000,   0.00000  )

     Band symmetry, C_s (m)     point group:

     e(  1 -  1) =    -23.24957  eV     1   --> A'             
     e(  2 -  2) =    -22.97815  eV     1   --> A'             
     e(  3 -  3) =    -22.97785  eV     1   --> A'             
     e(  4 -  4) =    -22.18293  eV     1   --> A'             
     e(  5 -  5) =    -22.18282  eV     1   --> A'             
     e(  6 -  7) =    -20.91488  eV     2   -->   2 A'             
     e(  8 -  8) =    -19.24966  eV     1   --> A'             
     e(  9 -  9) =    -19.24953  eV     1   --> A'             
     e( 10 - 10) =    -17.64049  eV     1   --> A'             
     e( 11 - 11) =    -16.68269  eV     1   --> A'             
     e( 12 - 12) =    -14.81154  eV     1   --> A'             
     e( 13 - 13) =    -14.81122  eV     1   --> A'             
     e( 14 - 14) =    -12.41721  eV     1   --> A'             
     e( 15 - 15) =    -12.41702  eV     1   --> A'             
     e( 16 - 16) =    -11.54217  eV     1   --> A'             
     e( 17 - 17) =    -11.23519  eV     1   --> A'             
     e( 18 - 18) =    -11.23478  eV     1   --> A'             
     e( 19 - 19) =    -10.70389  eV     1   --> A'             
     e( 20 - 20) =    -10.70371  eV     1   --> A'             
     e( 21 - 21) =    -10.23442  eV     1   --> A''            
     e( 22 - 22) =     -9.99557  eV     1   --> A''            
     e( 23 - 23) =     -9.99511  eV     1   --> A''            
     e( 24 - 24) =     -9.30196  eV     1   --> A''            
     e( 25 - 25) =     -9.30140  eV     1   --> A''            
     e( 26 - 26) =     -9.18453  eV     1   --> A'             
     e( 27 - 27) =     -9.18429  eV     1   --> A'             
     e( 28 - 28) =     -8.44522  eV     1   --> A'             
     e( 29 - 29) =     -8.44492  eV     1   --> A'             
     e( 30 - 30) =     -8.26843  eV     1   --> A''            
     e( 31 - 31) =     -8.26787  eV     1   --> A''            
     e( 32 - 32) =     -7.53911  eV     1   --> A'             
     e( 33 - 33) =     -7.53888  eV     1   --> A'             
     e( 34 - 34) =     -7.20835  eV     1   --> A''            
     e( 35 - 35) =     -7.20758  eV     1   --> A''            
     e( 36 - 36) =     -6.72151  eV     1   --> A''            
     e( 37 - 37) =     -6.68266  eV     1   --> A'             
     e( 38 - 38) =     -6.67739  eV     1   --> A'             
     e( 39 - 39) =     -6.67681  eV     1   --> A'             
     e( 40 - 40) =     -5.45709  eV     1   --> A'             

 **************************************************************************

 **************************************************************************

                    xk=(   0.00000,  -0.50000,   1.21976  )

     point group C_1 (1)    
     there are  1 classes
     the character table:

       E    
A      1.00

     the symmetry operations in each class and the name of the first element:

     E        1
                                                                 

     Band symmetry, C_1 (1)     point group:

     e(  1 -  1) =    -23.07138  eV     1   --> A              
     e(  2 -  2) =    -22.80075  eV     1   --> A              
     e(  3 -  3) =    -22.80045  eV     1   --> A              
     e(  4 -  5) =    -22.00781  eV     2   -->   2 A              
     e(  6 -  7) =    -20.74387  eV     2   -->   2 A              
     e(  8 -  9) =    -19.08618  eV     2   -->   2 A              
     e( 10 - 10) =    -17.49150  eV     1   --> A              
     e( 11 - 11) =    -16.53211  eV     1   --> A              
     e( 12 - 12) =    -14.69072  eV     1   --> A              
     e( 13 - 13) =    -14.69058  eV     1   --> A              
     e( 14 - 14) =    -12.36161  eV     1   --> A              
     e( 15 - 15) =    -12.36128  eV     1   --> A              
     e( 16 - 16) =    -11.33579  eV     1   --> A              
     e( 17 - 17) =    -11.03412  eV     1   --> A              
     e( 18 - 18) =    -11.03377  eV     1   --> A              
     e( 19 - 19) =    -10.97295  eV     1   --> A              
     e( 20 - 20) =    -10.72044  eV     1   --> A              
     e( 21 - 21) =    -10.71995  eV     1   --> A              
     e( 22 - 22) =    -10.61929  eV     1   --> A              
     e( 23 - 23) =    -10.61897  eV     1   --> A              
     e( 24 - 24) =     -9.98367  eV     1   --> A              
     e( 25 - 25) =     -9.98302  eV     1   --> A              
     e( 26 - 26) =     -9.27495  eV     1   --> A              
     e( 27 - 27) =     -9.27483  eV     1   --> A              
     e( 28 - 28) =     -8.77449  eV     1   --> A              
     e( 29 - 29) =     -8.77384  eV     1   --> A              
     e( 30 - 30) =     -8.25812  eV     1   --> A              
     e( 31 - 31) =     -8.25762  eV     1   --> A              
     e( 32 - 32) =     -8.10375  eV     1   --> A              
     e( 33 - 33) =     -8.10296  eV     1   --> A              
     e( 34 - 34) =     -7.51723  eV     1   --> A              
     e( 35 - 35) =     -7.51697  eV     1   --> A              
     e( 36 - 36) =     -7.37521  eV     1   --> A              
     e( 37 - 37) =     -7.03596  eV     1   --> A              
     e( 38 - 38) =     -6.48777  eV     1   --> A              
     e( 39 - 39) =     -6.48756  eV     1   --> A              
     e( 40 - 40) =     -5.25352  eV     1   --> A              

 **************************************************************************

 **************************************************************************

                    xk=(   0.00000,  -0.50000,   2.43951  )

     Band symmetry, C_1 (1)     point group:

     e(  1 -  1) =    -22.53908  eV     1   --> A              
     e(  2 -  2) =    -22.27073  eV     1   --> A              
     e(  3 -  3) =    -22.27043  eV     1   --> A              
     e(  4 -  5) =    -21.48474  eV     2   -->   2 A              
     e(  6 -  7) =    -20.23375  eV     2   -->   2 A              
     e(  8 -  8) =    -18.60036  eV     1   --> A              
     e(  9 -  9) =    -18.60020  eV     1   --> A              
     e( 10 - 10) =    -17.04530  eV     1   --> A              
     e( 11 - 11) =    -16.11842  eV     1   --> A              
     e( 12 - 12) =    -14.40839  eV     1   --> A              
     e( 13 - 13) =    -14.40823  eV     1   --> A              
     e( 14 - 14) =    -12.65135  eV     1   --> A              
     e( 15 - 15) =    -12.55236  eV     1   --> A              
     e( 16 - 16) =    -12.55205  eV     1   --> A              
     e( 17 - 17) =    -12.32607  eV     1   --> A              
     e( 18 - 18) =    -12.32552  eV     1   --> A              
     e( 19 - 19) =    -11.21575  eV     1   --> A              
     e( 20 - 20) =    -11.21546  eV     1   --> A              
     e( 21 - 21) =    -11.16512  eV     1   --> A              
     e( 22 - 22) =    -11.16486  eV     1   --> A              
     e( 23 - 23) =    -10.73144  eV     1   --> A              
     e( 24 - 24) =    -10.49899  eV     1   --> A              
     e( 25 - 25) =    -10.49853  eV     1   --> A              
     e( 26 - 26) =     -9.82596  eV     1   --> A              
     e( 27 - 27) =     -9.82534  eV     1   --> A              
     e( 28 - 28) =     -9.63497  eV     1   --> A              
     e( 29 - 29) =     -9.63485  eV     1   --> A              
     e( 30 - 30) =     -8.90667  eV     1   --> A              
     e( 31 - 31) =     -8.77251  eV     1   --> A              
     e( 32 - 32) =     -8.77239  eV     1   --> A              
     e( 33 - 33) =     -8.07893  eV     1   --> A              
     e( 34 - 34) =     -8.07863  eV     1   --> A              
     e( 35 - 35) =     -8.00007  eV     1   --> A              
     e( 36 - 36) =     -7.71107  eV     1   --> A              
     e( 37 - 37) =     -7.71081  eV     1   --> A              
     e( 38 - 38) =     -5.95056  eV     1   --> A              
     e( 39 - 39) =     -5.95038  eV     1   --> A              
     e( 40 - 40) =     -4.64625  eV     1   --> A              

 **************************************************************************

 **************************************************************************

                    xk=(   0.00000,  -0.50000,   3.65927  )

     Band symmetry, C_1 (1)     point group:

     e(  1 -  1) =    -21.65966  eV     1   --> A              
     e(  2 -  2) =    -21.39535  eV     1   --> A              
     e(  3 -  3) =    -21.39505  eV     1   --> A              
     e(  4 -  4) =    -20.62136  eV     1   --> A              
     e(  5 -  5) =    -20.62123  eV     1   --> A              
     e(  6 -  6) =    -19.39501  eV     1   --> A              
     e(  7 -  7) =    -19.39487  eV     1   --> A              
     e(  8 -  8) =    -17.81436  eV     1   --> A              
     e(  9 -  9) =    -17.81425  eV     1   --> A              
     e( 10 - 10) =    -16.30441  eV     1   --> A              
     e( 11 - 11) =    -15.86242  eV     1   --> A              
     e( 12 - 12) =    -14.96468  eV     1   --> A              
     e( 13 - 13) =    -14.96442  eV     1   --> A              
     e( 14 - 14) =    -14.16661  eV     1   --> A              
     e( 15 - 15) =    -14.12849  eV     1   --> A              
     e( 16 - 16) =    -14.12815  eV     1   --> A              
     e( 17 - 17) =    -13.12172  eV     1   --> A              
     e( 18 - 18) =    -13.12161  eV     1   --> A              
     e( 19 - 20) =    -12.99400  eV     2   -->   2 A              
     e( 21 - 21) =    -11.65337  eV     1   --> A              
     e( 22 - 22) =    -11.65305  eV     1   --> A              
     e( 23 - 23) =    -11.20962  eV     1   --> A              
     e( 24 - 24) =    -11.20921  eV     1   --> A              
     e( 25 - 25) =    -10.69139  eV     1   --> A              
     e( 26 - 26) =     -9.98520  eV     1   --> A              
     e( 27 - 27) =     -9.73477  eV     1   --> A              
     e( 28 - 28) =     -9.73456  eV     1   --> A              
     e( 29 - 29) =     -9.60613  eV     1   --> A              
     e( 30 - 30) =     -9.60582  eV     1   --> A              
     e( 31 - 31) =     -9.10702  eV     1   --> A              
     e( 32 - 32) =     -8.73945  eV     1   --> A              
     e( 33 - 33) =     -8.73902  eV     1   --> A              
     e( 34 - 34) =     -8.14700  eV     1   --> A              
     e( 35 - 35) =     -8.14659  eV     1   --> A              
     e( 36 - 36) =     -6.86718  eV     1   --> A              
     e( 37 - 37) =     -6.86682  eV     1   --> A              
     e( 38 - 38) =     -5.21379  eV     1   --> A              
     e( 39 - 39) =     -5.21357  eV     1   --> A              
     e( 40 - 40) =     -3.65348  eV     1   --> A              

 **************************************************************************

 **************************************************************************

                    xk=(   0.00000,  -0.50000,   4.87902  )

     Band symmetry, C_1 (1)     point group:

     e(  1 -  1) =    -20.44866  eV     1   --> A              
     e(  2 -  2) =    -20.18984  eV     1   --> A              
     e(  3 -  3) =    -20.18958  eV     1   --> A              
     e(  4 -  4) =    -19.43738  eV     1   --> A              
     e(  5 -  5) =    -19.43722  eV     1   --> A              
     e(  6 -  7) =    -18.27285  eV     2   -->   2 A              
     e(  8 -  8) =    -17.21072  eV     1   --> A              
     e(  9 -  9) =    -17.19179  eV     1   --> A              
     e( 10 - 10) =    -17.19154  eV     1   --> A              
     e( 11 - 12) =    -16.28423  eV     2   -->   2 A              
     e( 13 - 14) =    -16.00560  eV     2   -->   2 A              
     e( 15 - 15) =    -15.27556  eV     1   --> A              
     e( 16 - 16) =    -14.90189  eV     1   --> A              
     e( 17 - 17) =    -14.90161  eV     1   --> A              
     e( 18 - 18) =    -13.75282  eV     1   --> A              
     e( 19 - 19) =    -13.49560  eV     1   --> A              
     e( 20 - 20) =    -13.49535  eV     1   --> A              
     e( 21 - 21) =    -12.42828  eV     1   --> A              
     e( 22 - 22) =    -12.40845  eV     1   --> A              
     e( 23 - 23) =    -12.40815  eV     1   --> A              
     e( 24 - 24) =    -11.06927  eV     1   --> A              
     e( 25 - 25) =    -10.73343  eV     1   --> A              
     e( 26 - 26) =    -10.73300  eV     1   --> A              
     e( 27 - 28) =    -10.25075  eV     2   -->   2 A              
     e( 29 - 29) =     -9.86358  eV     1   --> A              
     e( 30 - 30) =     -9.86314  eV     1   --> A              
     e( 31 - 31) =     -8.17486  eV     1   --> A              
     e( 32 - 33) =     -7.87101  eV     2   -->   2 A              
     e( 34 - 34) =     -7.05867  eV     1   --> A              
     e( 35 - 35) =     -7.05842  eV     1   --> A              
     e( 36 - 36) =     -5.98662  eV     1   --> A              
     e( 37 - 37) =     -5.98637  eV     1   --> A              
     e( 38 - 38) =     -5.09350  eV     1   --> A              
     e( 39 - 39) =     -5.09309  eV     1   --> A              
     e( 40 - 40) =     -4.80012  eV     1   --> A              

 **************************************************************************

 **************************************************************************

                    xk=(   0.00000,  -0.50000,  -6.09878  )

     point group C_s (m)    
     there are  2 classes
     the character table:

       E     s    
A'     1.00  1.00
A''    1.00 -1.00

     the symmetry operations in each class and the name of the first element:

     E        1
                                                                 
     s        2
                                                                 

     Band symmetry, C_s (m)     point group:

     e(  1 -  1) =    -18.93630  eV     1   --> A'             
     e(  2 -  2) =    -18.93614  eV     1   --> A''            
     e(  3 -  3) =    -18.69169  eV     1   --> A'             
     e(  4 -  4) =    -18.69151  eV     1   --> A''            
     e(  5 -  5) =    -18.69135  eV     1   --> A'             
     e(  6 -  6) =    -18.69120  eV     1   --> A''            
     e(  7 -  8) =    -18.03396  eV     2   -->   2 A'             
     e(  9 - 10) =    -18.03373  eV     2   -->   2 A''            
     e( 11 - 14) =    -16.53986  eV     4   -->   2 A'             
     e( 11 - 14) =    -16.53986  eV     4   -->   2 A''            
     e( 15 - 16) =    -15.14254  eV     2   --> A'             
     e( 15 - 16) =    -15.14254  eV     2   --> A''            
     e( 17 - 17) =    -15.14234  eV     1   --> A'             
     e( 18 - 18) =    -15.14221  eV     1   --> A''            
     e( 19 - 19) =    -13.97339  eV     1   --> A'             
     e( 20 - 20) =    -13.97326  eV     1   --> A''            
     e( 21 - 21) =    -12.51721  eV     1   --> A''            
     e( 22 - 22) =    -12.51705  eV     1   --> A'             
     e( 23 - 26) =    -11.36963  eV     4   -->   2 A'             
     e( 23 - 26) =    -11.36963  eV     4   -->   2 A''            
     e( 27 - 27) =    -10.23545  eV     1   --> A''            
     e( 28 - 28) =    -10.23526  eV     1   --> A'             
     e( 29 - 30) =    -10.23510  eV     2   --> A'             
     e( 29 - 30) =    -10.23510  eV     2   --> A''            
     e( 31 - 31) =     -6.54736  eV     1   --> A''            
     e( 32 - 32) =     -6.54723  eV     1   --> A'             
     e( 33 - 34) =     -6.35969  eV     2   --> A'             
     e( 33 - 34) =     -6.35969  eV     2   --> A''            
     e( 35 - 36) =     -6.35939  eV     2   --> A'             
     e( 35 - 36) =     -6.35939  eV     2   --> A''            
     e( 37 - 37) =     -5.98421  eV     1   --> A'             
     e( 38 - 39) =     -5.98398  eV     2   --> A'             
     e( 38 - 39) =     -5.98398  eV     2   --> A''            
     e( 40 - 40) =     -5.98379  eV     1   --> A''            

 **************************************************************************

 **************************************************************************

                    xk=(  -0.50000,  -0.50000,   0.00000  )

     Band symmetry, C_s (m)     point group:

     e(  1 -  1) =    -23.24957  eV     1   --> A'             
     e(  2 -  2) =    -22.97815  eV     1   --> A'             
     e(  3 -  3) =    -22.97784  eV     1   --> A'             
     e(  4 -  5) =    -22.18291  eV     2   -->   2 A'             
     e(  6 -  7) =    -20.91486  eV     2   -->   2 A'             
     e(  8 -  8) =    -19.24962  eV     1   --> A'             
     e(  9 -  9) =    -19.24951  eV     1   --> A'             
     e( 10 - 10) =    -17.64052  eV     1   --> A'             
     e( 11 - 11) =    -16.68272  eV     1   --> A'             
     e( 12 - 12) =    -14.81142  eV     1   --> A'             
     e( 13 - 13) =    -14.81130  eV     1   --> A'             
     e( 14 - 14) =    -12.41700  eV     1   --> A'             
     e( 15 - 15) =    -12.41686  eV     1   --> A'             
     e( 16 - 16) =    -11.54244  eV     1   --> A'             
     e( 17 - 17) =    -11.23497  eV     1   --> A'             
     e( 18 - 18) =    -11.23436  eV     1   --> A'             
     e( 19 - 19) =    -10.70356  eV     1   --> A'             
     e( 20 - 20) =    -10.70341  eV     1   --> A'             
     e( 21 - 21) =    -10.23495  eV     1   --> A''            
     e( 22 - 22) =     -9.99536  eV     1   --> A''            
     e( 23 - 23) =     -9.99494  eV     1   --> A''            
     e( 24 - 24) =     -9.30221  eV     1   --> A''            
     e( 25 - 25) =     -9.30170  eV     1   --> A''            
     e( 26 - 26) =     -9.18500  eV     1   --> A'             
     e( 27 - 27) =     -9.18459  eV     1   --> A'             
     e( 28 - 28) =     -8.44510  eV     1   --> A'             
     e( 29 - 29) =     -8.44465  eV     1   --> A'             
     e( 30 - 31) =     -8.26803  eV     2   -->   2 A''            
     e( 32 - 32) =     -7.53864  eV     1   --> A'             
     e( 33 - 33) =     -7.53853  eV     1   --> A'             
     e( 34 - 34) =     -7.20816  eV     1   --> A''            
     e( 35 - 35) =     -7.20719  eV     1   --> A''            
     e( 36 - 36) =     -6.72081  eV     1   --> A''            
     e( 37 - 37) =     -6.68241  eV     1   --> A'             
     e( 38 - 38) =     -6.67710  eV     1   --> A'             
     e( 39 - 39) =     -6.67662  eV     1   --> A'             
     e( 40 - 40) =     -5.45730  eV     1   --> A'             

 **************************************************************************

 **************************************************************************

                    xk=(  -0.50000,  -0.50000,   1.21976  )

     point group C_1 (1)    
     there are  1 classes
     the character table:

       E    
A      1.00

     the symmetry operations in each class and the name of the first element:

     E        1
                                                                 

     Band symmetry, C_1 (1)     point group:

     e(  1 -  1) =    -23.07138  eV     1   --> A              
     e(  2 -  2) =    -22.80076  eV     1   --> A              
     e(  3 -  3) =    -22.80046  eV     1   --> A              
     e(  4 -  5) =    -22.00783  eV     2   -->   2 A              
     e(  6 -  7) =    -20.74390  eV     2   -->   2 A              
     e(  8 -  8) =    -19.08631  eV     1   --> A              
     e(  9 -  9) =    -19.08617  eV     1   --> A              
     e( 10 - 10) =    -17.49154  eV     1   --> A              
     e( 11 - 11) =    -16.53221  eV     1   --> A              
     e( 12 - 12) =    -14.69096  eV     1   --> A              
     e( 13 - 13) =    -14.69078  eV     1   --> A              
     e( 14 - 14) =    -12.36201  eV     1   --> A              
     e( 15 - 15) =    -12.36168  eV     1   --> A              
     e( 16 - 16) =    -11.33602  eV     1   --> A              
     e( 17 - 17) =    -11.03436  eV     1   --> A              
     e( 18 - 18) =    -11.03413  eV     1   --> A              
     e( 19 - 19) =    -10.97344  eV     1   --> A              
     e( 20 - 20) =    -10.72023  eV     1   --> A              
     e( 21 - 21) =    -10.71999  eV     1   --> A              
     e( 22 - 22) =    -10.61966  eV     1   --> A              
     e( 23 - 23) =    -10.61923  eV     1   --> A              
     e( 24 - 24) =     -9.98333  eV     1   --> A              
     e( 25 - 25) =     -9.98279  eV     1   --> A              
     e( 26 - 26) =     -9.27531  eV     1   --> A              
     e( 27 - 27) =     -9.27496  eV     1   --> A              
     e( 28 - 28) =     -8.77423  eV     1   --> A              
     e( 29 - 29) =     -8.77389  eV     1   --> A              
     e( 30 - 30) =     -8.25819  eV     1   --> A              
     e( 31 - 31) =     -8.25797  eV     1   --> A              
     e( 32 - 32) =     -8.10374  eV     1   --> A              
     e( 33 - 33) =     -8.10343  eV     1   --> A              
     e( 34 - 34) =     -7.51728  eV     1   --> A              
     e( 35 - 35) =     -7.51670  eV     1   --> A              
     e( 36 - 36) =     -7.37478  eV     1   --> A              
     e( 37 - 37) =     -7.03641  eV     1   --> A              
     e( 38 - 38) =     -6.48829  eV     1   --> A              
     e( 39 - 39) =     -6.48818  eV     1   --> A              
     e( 40 - 40) =     -5.25382  eV     1   --> A              

 **************************************************************************

 **************************************************************************

                    xk=(  -0.50000,  -0.50000,   2.43951  )

     Band symmetry, C_1 (1)     point group:

     e(  1 -  1) =    -22.53908  eV     1   --> A              
     e(  2 -  2) =    -22.27073  eV     1   --> A              
     e(  3 -  3) =    -22.27042  eV     1   --> A              
     e(  4 -  4) =    -21.48476  eV     1   --> A              
     e(  5 -  5) =    -21.48463  eV     1   --> A              
     e(  6 -  7) =    -20.23374  eV     2   -->   2 A              
     e(  8 -  8) =    -18.60035  eV     1   --> A              
     e(  9 -  9) =    -18.60025  eV     1   --> A              
     e( 10 - 10) =    -17.04531  eV     1   --> A              
     e( 11 - 11) =    -16.11843  eV     1   --> A              
     e( 12 - 12) =    -14.40854  eV     1   --> A              
     e( 13 - 13) =    -14.40824  eV     1   --> A              
     e( 14 - 14) =    -12.65127  eV     1   --> A              
     e( 15 - 15) =    -12.55218  eV     1   --> A              
     e( 16 - 16) =    -12.55191  eV     1   --> A              
     e( 17 - 17) =    -12.32608  eV     1   --> A              
     e( 18 - 18) =    -12.32563  eV     1   --> A              
     e( 19 - 19) =    -11.21584  eV     1   --> A              
     e( 20 - 20) =    -11.21541  eV     1   --> A              
     e( 21 - 21) =    -11.16499  eV     1   --> A              
     e( 22 - 22) =    -11.16483  eV     1   --> A              
     e( 23 - 23) =    -10.73145  eV     1   --> A              
     e( 24 - 24) =    -10.49885  eV     1   --> A              
     e( 25 - 25) =    -10.49855  eV     1   --> A              
     e( 26 - 26) =     -9.82567  eV     1   --> A              
     e( 27 - 27) =     -9.82536  eV     1   --> A              
     e( 28 - 28) =     -9.63498  eV     1   --> A              
     e( 29 - 29) =     -9.63471  eV     1   --> A              
     e( 30 - 30) =     -8.90650  eV     1   --> A              
     e( 31 - 31) =     -8.77253  eV     1   --> A              
     e( 32 - 32) =     -8.77224  eV     1   --> A              
     e( 33 - 33) =     -8.07888  eV     1   --> A              
     e( 34 - 34) =     -8.07862  eV     1   --> A              
     e( 35 - 35) =     -8.00022  eV     1   --> A              
     e( 36 - 36) =     -7.71107  eV     1   --> A              
     e( 37 - 37) =     -7.71072  eV     1   --> A              
     e( 38 - 38) =     -5.95060  eV     1   --> A              
     e( 39 - 39) =     -5.95049  eV     1   --> A              
     e( 40 - 40) =     -4.64671  eV     1   --> A              

 **************************************************************************

 **************************************************************************

                    xk=(  -0.50000,  -0.50000,   3.65927  )

     Band symmetry, C_1 (1)     point group:

     e(  1 -  1) =    -21.65967  eV     1   --> A              
     e(  2 -  2) =    -21.39536  eV     1   --> A              
     e(  3 -  3) =    -21.39507  eV     1   --> A              
     e(  4 -  4) =    -20.62137  eV     1   --> A              
     e(  5 -  5) =    -20.62126  eV     1   --> A              
     e(  6 -  6) =    -19.39503  eV     1   --> A              
     e(  7 -  7) =    -19.39486  eV     1   --> A              
     e(  8 -  8) =    -17.81439  eV     1   --> A              
     e(  9 -  9) =    -17.81424  eV     1   --> A              
     e( 10 - 10) =    -16.30452  eV     1   --> A              
     e( 11 - 11) =    -15.86254  eV     1   --> A              
     e( 12 - 12) =    -14.96449  eV     1   --> A              
     e( 13 - 13) =    -14.96430  eV     1   --> A              
     e( 14 - 14) =    -14.16676  eV     1   --> A              
     e( 15 - 15) =    -14.12841  eV     1   --> A              
     e( 16 - 16) =    -14.12814  eV     1   --> A              
     e( 17 - 17) =    -13.12170  eV     1   --> A              
     e( 18 - 18) =    -13.12157  eV     1   --> A              
     e( 19 - 19) =    -12.99424  eV     1   --> A              
     e( 20 - 20) =    -12.99408  eV     1   --> A              
     e( 21 - 21) =    -11.65338  eV     1   --> A              
     e( 22 - 22) =    -11.65302  eV     1   --> A              
     e( 23 - 23) =    -11.20973  eV     1   --> A              
     e( 24 - 24) =    -11.20938  eV     1   --> A              
     e( 25 - 25) =    -10.69110  eV     1   --> A              
     e( 26 - 26) =     -9.98572  eV     1   --> A              
     e( 27 - 27) =     -9.73551  eV     1   --> A              
     e( 28 - 28) =     -9.73530  eV     1   --> A              
     e( 29 - 29) =     -9.60625  eV     1   --> A              
     e( 30 - 30) =     -9.60589  eV     1   --> A              
     e( 31 - 31) =     -9.10726  eV     1   --> A              
     e( 32 - 32) =     -8.73951  eV     1   --> A              
     e( 33 - 33) =     -8.73924  eV     1   --> A              
     e( 34 - 34) =     -8.14704  eV     1   --> A              
     e( 35 - 35) =     -8.14675  eV     1   --> A              
     e( 36 - 36) =     -6.86746  eV     1   --> A              
     e( 37 - 37) =     -6.86725  eV     1   --> A              
     e( 38 - 38) =     -5.21394  eV     1   --> A              
     e( 39 - 39) =     -5.21362  eV     1   --> A              
     e( 40 - 40) =     -3.65385  eV     1   --> A              

 **************************************************************************

 **************************************************************************

                    xk=(  -0.50000,  -0.50000,   4.87902  )

     Band symmetry, C_1 (1)     point group:

     e(  1 -  1) =    -20.44866  eV     1   --> A              
     e(  2 -  2) =    -20.18985  eV     1   --> A              
     e(  3 -  3) =    -20.18956  eV     1   --> A              
     e(  4 -  4) =    -19.43736  eV     1   --> A              
     e(  5 -  5) =    -19.43726  eV     1   --> A              
     e(  6 -  6) =    -18.27285  eV     1   --> A              
     e(  7 -  7) =    -18.27273  eV     1   --> A              
     e(  8 -  8) =    -17.21059  eV     1   --> A              
     e(  9 -  9) =    -17.19170  eV     1   --> A              
     e( 10 - 10) =    -17.19152  eV     1   --> A              
     e( 11 - 11) =    -16.28412  eV     1   --> A              
     e( 12 - 12) =    -16.28395  eV     1   --> A              
     e( 13 - 13) =    -16.00558  eV     1   --> A              
     e( 14 - 14) =    -16.00529  eV     1   --> A              
     e( 15 - 15) =    -15.27537  eV     1   --> A              
     e( 16 - 16) =    -14.90171  eV     1   --> A              
     e( 17 - 17) =    -14.90144  eV     1   --> A              
     e( 18 - 18) =    -13.75238  eV     1   --> A              
     e( 19 - 19) =    -13.49545  eV     1   --> A              
     e( 20 - 20) =    -13.49500  eV     1   --> A              
     e( 21 - 21) =    -12.42784  eV     1   --> A              
     e( 22 - 22) =    -12.40824  eV     1   --> A              
     e( 23 - 23) =    -12.40810  eV     1   --> A              
     e( 24 - 24) =    -11.06873  eV     1   --> A              
     e( 25 - 25) =    -10.73287  eV     1   --> A              
     e( 26 - 26) =    -10.73276  eV     1   --> A              
     e( 27 - 27) =    -10.25040  eV     1   --> A              
     e( 28 - 28) =    -10.25018  eV     1   --> A              
     e( 29 - 29) =     -9.86312  eV     1   --> A              
     e( 30 - 30) =     -9.86258  eV     1   --> A              
     e( 31 - 31) =     -8.17495  eV     1   --> A              
     e( 32 - 32) =     -7.87111  eV     1   --> A              
     e( 33 - 33) =     -7.87068  eV     1   --> A              
     e( 34 - 34) =     -7.05848  eV     1   --> A              
     e( 35 - 35) =     -7.05834  eV     1   --> A              
     e( 36 - 36) =     -5.98621  eV     1   --> A              
     e( 37 - 37) =     -5.98588  eV     1   --> A              
     e( 38 - 38) =     -5.09288  eV     1   --> A              
     e( 39 - 39) =     -5.09269  eV     1   --> A              
     e( 40 - 40) =     -4.79983  eV     1   --> A              

 **************************************************************************

 **************************************************************************

                    xk=(  -0.50000,  -0.50000,  -6.09878  )

     point group C_s (m)    
     there are  2 classes
     the character table:

       E     s    
A'     1.00  1.00
A''    1.00 -1.00

     the symmetry operations in each class and the name of the first element:

     E        1
                                                                 
     s        2
                                                                 

     Band symmetry, C_s (m)     point group:

     e(  1 -  1) =    -18.93637  eV     1   --> A'             
     e(  2 -  2) =    -18.93621  eV     1   --> A''            
     e(  3 -  3) =    -18.69171  eV     1   --> A'             
     e(  4 -  5) =    -18.69153  eV     2   --> A'             
     e(  4 -  5) =    -18.69153  eV     2   --> A''            
     e(  6 -  6) =    -18.69133  eV     1   --> A''            
     e(  7 -  7) =    -18.03409  eV     1   --> A'             
     e(  8 -  9) =    -18.03392  eV     2   --> A'             
     e(  8 -  9) =    -18.03392  eV     2   --> A''            
     e( 10 - 10) =    -18.03374  eV     1   --> A''            
     e( 11 - 12) =    -16.54016  eV     2   --> A'             
     e( 11 - 12) =    -16.54016  eV     2   --> A''            
     e( 13 - 14) =    -16.53991  eV     2   --> A'             
     e( 13 - 14) =    -16.53991  eV     2   --> A''            
     e( 15 - 17) =    -15.14271  eV     3   -->   2 A'             
     e( 15 - 17) =    -15.14271  eV     3   --> A''            
     e( 18 - 18) =    -15.14246  eV     1   --> A''            
     e( 19 - 19) =    -13.97356  eV     1   --> A'             
     e( 20 - 20) =    -13.97343  eV     1   --> A''            
     e( 21 - 21) =    -12.51779  eV     1   --> A''            
     e( 22 - 22) =    -12.51763  eV     1   --> A'             
     e( 23 - 26) =    -11.37041  eV     4   -->   2 A'             
     e( 23 - 26) =    -11.37041  eV     4   -->   2 A''            
     e( 27 - 27) =    -10.23636  eV     1   --> A''            
     e( 28 - 28) =    -10.23622  eV     1   --> A'             
     e( 29 - 30) =    -10.23580  eV     2   --> A'             
     e( 29 - 30) =    -10.23580  eV     2   --> A''            
     e( 31 - 31) =     -6.54798  eV     1   --> A''            
     e( 32 - 32) =     -6.54785  eV     1   --> A'             
     e( 33 - 34) =     -6.36022  eV     2   --> A'             
     e( 33 - 34) =     -6.36022  eV     2   --> A''            
     e( 35 - 36) =     -6.35986  eV     2   --> A'             
     e( 35 - 36) =     -6.35986  eV     2   --> A''            
     e( 37 - 37) =     -5.98483  eV     1   --> A'             
     e( 38 - 39) =     -5.98471  eV     2   --> A'             
     e( 38 - 39) =     -5.98471  eV     2   --> A''            
     e( 40 - 40) =     -5.98451  eV     1   --> A''            

 **************************************************************************

 **************************************************************************

                    xk=(  -0.50000,   0.00000,   0.00000  )

     Band symmetry, C_s (m)     point group:

     e(  1 -  1) =    -23.24957  eV     1   --> A'             
     e(  2 -  2) =    -22.97815  eV     1   --> A'             
     e(  3 -  3) =    -22.97785  eV     1   --> A'             
     e(  4 -  5) =    -22.18292  eV     2   -->   2 A'             
     e(  6 -  7) =    -20.91487  eV     2   -->   2 A'             
     e(  8 -  8) =    -19.24967  eV     1   --> A'             
     e(  9 -  9) =    -19.24954  eV     1   --> A'             
     e( 10 - 10) =    -17.64052  eV     1   --> A'             
     e( 11 - 11) =    -16.68260  eV     1   --> A'             
     e( 12 - 12) =    -14.81175  eV     1   --> A'             
     e( 13 - 13) =    -14.81144  eV     1   --> A'             
     e( 14 - 14) =    -12.41713  eV     1   --> A'             
     e( 15 - 15) =    -12.41654  eV     1   --> A'             
     e( 16 - 16) =    -11.54251  eV     1   --> A'             
     e( 17 - 18) =    -11.23490  eV     2   -->   2 A'             
     e( 19 - 19) =    -10.70366  eV     1   --> A'             
     e( 20 - 20) =    -10.70328  eV     1   --> A'             
     e( 21 - 21) =    -10.23486  eV     1   --> A''            
     e( 22 - 23) =     -9.99527  eV     2   -->   2 A''            
     e( 24 - 24) =     -9.30166  eV     1   --> A''            
     e( 25 - 25) =     -9.30125  eV     1   --> A''            
     e( 26 - 26) =     -9.18462  eV     1   --> A'             
     e( 27 - 27) =     -9.18421  eV     1   --> A'             
     e( 28 - 28) =     -8.44533  eV     1   --> A'             
     e( 29 - 29) =     -8.44459  eV     1   --> A'             
     e( 30 - 30) =     -8.26881  eV     1   --> A''            
     e( 31 - 31) =     -8.26772  eV     1   --> A''            
     e( 32 - 32) =     -7.53931  eV     1   --> A'             
     e( 33 - 33) =     -7.53861  eV     1   --> A'             
     e( 34 - 34) =     -7.20875  eV     1   --> A''            
     e( 35 - 35) =     -7.20795  eV     1   --> A''            
     e( 36 - 36) =     -6.72056  eV     1   --> A''            
     e( 37 - 37) =     -6.68259  eV     1   --> A'             
     e( 38 - 38) =     -6.67719  eV     1   --> A'             
     e( 39 - 39) =     -6.67680  eV     1   --> A'             
     e( 40 - 40) =     -5.45717  eV     1   --> A'             

 **************************************************************************

 **************************************************************************

                    xk=(  -0.50000,   0.00000,  -1.21976  )

     point group C_1 (1)    
     there are  1 classes
     the character table:

       E    
A      1.00

     the symmetry operations in each class and the name of the first element:

     E        1
                                                                 

     Band symmetry, C_1 (1)     point group:

     e(  1 -  1) =    -23.07138  eV     1   --> A              
     e(  2 -  2) =    -22.80075  eV     1   --> A              
     e(  3 -  3) =    -22.80044  eV     1   --> A              
     e(  4 -  4) =    -22.00782  eV     1   --> A              
     e(  5 -  5) =    -22.00772  eV     1   --> A              
     e(  6 -  7) =    -20.74386  eV     2   -->   2 A              
     e(  8 -  8) =    -19.08620  eV     1   --> A              
     e(  9 -  9) =    -19.08605  eV     1   --> A              
     e( 10 - 10) =    -17.49149  eV     1   --> A              
     e( 11 - 11) =    -16.53208  eV     1   --> A              
     e( 12 - 12) =    -14.69075  eV     1   --> A              
     e( 13 - 13) =    -14.69057  eV     1   --> A              
     e( 14 - 14) =    -12.36166  eV     1   --> A              
     e( 15 - 15) =    -12.36126  eV     1   --> A              
     e( 16 - 16) =    -11.33560  eV     1   --> A              
     e( 17 - 17) =    -11.03413  eV     1   --> A              
     e( 18 - 18) =    -11.03368  eV     1   --> A              
     e( 19 - 19) =    -10.97317  eV     1   --> A              
     e( 20 - 20) =    -10.72022  eV     1   --> A              
     e( 21 - 21) =    -10.71996  eV     1   --> A              
     e( 22 - 22) =    -10.61923  eV     1   --> A              
     e( 23 - 23) =    -10.61909  eV     1   --> A              
     e( 24 - 24) =     -9.98322  eV     1   --> A              
     e( 25 - 25) =     -9.98267  eV     1   --> A              
     e( 26 - 26) =     -9.27507  eV     1   --> A              
     e( 27 - 27) =     -9.27492  eV     1   --> A              
     e( 28 - 28) =     -8.77462  eV     1   --> A              
     e( 29 - 29) =     -8.77396  eV     1   --> A              
     e( 30 - 30) =     -8.25799  eV     1   --> A              
     e( 31 - 31) =     -8.25749  eV     1   --> A              
     e( 32 - 32) =     -8.10374  eV     1   --> A              
     e( 33 - 33) =     -8.10324  eV     1   --> A              
     e( 34 - 34) =     -7.51733  eV     1   --> A              
     e( 35 - 35) =     -7.51676  eV     1   --> A              
     e( 36 - 36) =     -7.37531  eV     1   --> A              
     e( 37 - 37) =     -7.03598  eV     1   --> A              
     e( 38 - 38) =     -6.48819  eV     1   --> A              
     e( 39 - 39) =     -6.48774  eV     1   --> A              
     e( 40 - 40) =     -5.25347  eV     1   --> A              

 **************************************************************************

 **************************************************************************

                    xk=(  -0.50000,   0.00000,  -2.43951  )

     Band symmetry, C_1 (1)     point group:

     e(  1 -  1) =    -22.53909  eV     1   --> A              
     e(  2 -  2) =    -22.27073  eV     1   --> A              
     e(  3 -  3) =    -22.27042  eV     1   --> A              
     e(  4 -  4) =    -21.48477  eV     1   --> A              
     e(  5 -  5) =    -21.48466  eV     1   --> A              
     e(  6 -  7) =    -20.23372  eV     2   -->   2 A              
     e(  8 -  8) =    -18.60038  eV     1   --> A              
     e(  9 -  9) =    -18.60023  eV     1   --> A              
     e( 10 - 10) =    -17.04529  eV     1   --> A              
     e( 11 - 11) =    -16.11839  eV     1   --> A              
     e( 12 - 12) =    -14.40842  eV     1   --> A              
     e( 13 - 13) =    -14.40818  eV     1   --> A              
     e( 14 - 14) =    -12.65107  eV     1   --> A              
     e( 15 - 15) =    -12.55227  eV     1   --> A              
     e( 16 - 16) =    -12.55202  eV     1   --> A              
     e( 17 - 18) =    -12.32598  eV     2   -->   2 A              
     e( 19 - 19) =    -11.21588  eV     1   --> A              
     e( 20 - 20) =    -11.21536  eV     1   --> A              
     e( 21 - 21) =    -11.16527  eV     1   --> A              
     e( 22 - 22) =    -11.16490  eV     1   --> A              
     e( 23 - 23) =    -10.73132  eV     1   --> A              
     e( 24 - 24) =    -10.49900  eV     1   --> A              
     e( 25 - 25) =    -10.49835  eV     1   --> A              
     e( 26 - 27) =     -9.82575  eV     2   -->   2 A              
     e( 28 - 29) =     -9.63507  eV     2   -->   2 A              
     e( 30 - 30) =     -8.90649  eV     1   --> A              
     e( 31 - 31) =     -8.77240  eV     1   --> A              
     e( 32 - 32) =     -8.77220  eV     1   --> A              
     e( 33 - 34) =     -8.07886  eV     2   -->   2 A              
     e( 35 - 35) =     -8.00034  eV     1   --> A              
     e( 36 - 36) =     -7.71095  eV     1   --> A              
     e( 37 - 37) =     -7.71068  eV     1   --> A              
     e( 38 - 38) =     -5.95075  eV     1   --> A              
     e( 39 - 39) =     -5.95031  eV     1   --> A              
     e( 40 - 40) =     -4.64660  eV     1   --> A              

 **************************************************************************

 **************************************************************************

                    xk=(  -0.50000,   0.00000,  -3.65927  )

     Band symmetry, C_1 (1)     point group:

     e(  1 -  1) =    -21.65967  eV     1   --> A              
     e(  2 -  2) =    -21.39537  eV     1   --> A              
     e(  3 -  3) =    -21.39505  eV     1   --> A              
     e(  4 -  5) =    -20.62131  eV     2   -->   2 A              
     e(  6 -  7) =    -19.39494  eV     2   -->   2 A              
     e(  8 -  8) =    -17.81437  eV     1   --> A              
     e(  9 -  9) =    -17.81421  eV     1   --> A              
     e( 10 - 10) =    -16.30446  eV     1   --> A              
     e( 11 - 11) =    -15.86241  eV     1   --> A              
     e( 12 - 12) =    -14.96459  eV     1   --> A              
     e( 13 - 13) =    -14.96426  eV     1   --> A              
     e( 14 - 14) =    -14.16656  eV     1   --> A              
     e( 15 - 15) =    -14.12848  eV     1   --> A              
     e( 16 - 16) =    -14.12833  eV     1   --> A              
     e( 17 - 17) =    -13.12188  eV     1   --> A              
     e( 18 - 18) =    -13.12135  eV     1   --> A              
     e( 19 - 19) =    -12.99433  eV     1   --> A              
     e( 20 - 20) =    -12.99403  eV     1   --> A              
     e( 21 - 21) =    -11.65336  eV     1   --> A              
     e( 22 - 22) =    -11.65309  eV     1   --> A              
     e( 23 - 23) =    -11.20931  eV     1   --> A              
     e( 24 - 24) =    -11.20921  eV     1   --> A              
     e( 25 - 25) =    -10.69118  eV     1   --> A              
     e( 26 - 26) =     -9.98513  eV     1   --> A              
     e( 27 - 27) =     -9.73490  eV     1   --> A              
     e( 28 - 28) =     -9.73471  eV     1   --> A              
     e( 29 - 29) =     -9.60625  eV     1   --> A              
     e( 30 - 30) =     -9.60587  eV     1   --> A              
     e( 31 - 31) =     -9.10698  eV     1   --> A              
     e( 32 - 32) =     -8.73939  eV     1   --> A              
     e( 33 - 33) =     -8.73912  eV     1   --> A              
     e( 34 - 34) =     -8.14688  eV     1   --> A              
     e( 35 - 35) =     -8.14670  eV     1   --> A              
     e( 36 - 36) =     -6.86739  eV     1   --> A              
     e( 37 - 37) =     -6.86711  eV     1   --> A              
     e( 38 - 38) =     -5.21372  eV     1   --> A              
     e( 39 - 39) =     -5.21325  eV     1   --> A              
     e( 40 - 40) =     -3.65324  eV     1   --> A              

 **************************************************************************

 **************************************************************************

                    xk=(  -0.50000,   0.00000,  -4.87902  )

     Band symmetry, C_1 (1)     point group:

     e(  1 -  1) =    -20.44866  eV     1   --> A              
     e(  2 -  2) =    -20.18990  eV     1   --> A              
     e(  3 -  3) =    -20.18956  eV     1   --> A              
     e(  4 -  5) =    -19.43736  eV     2   -->   2 A              
     e(  6 -  7) =    -18.27281  eV     2   -->   2 A              
     e(  8 -  8) =    -17.21079  eV     1   --> A              
     e(  9 -  9) =    -17.19179  eV     1   --> A              
     e( 10 - 10) =    -17.19161  eV     1   --> A              
     e( 11 - 12) =    -16.28416  eV     2   -->   2 A              
     e( 13 - 14) =    -16.00563  eV     2   -->   2 A              
     e( 15 - 15) =    -15.27541  eV     1   --> A              
     e( 16 - 16) =    -14.90194  eV     1   --> A              
     e( 17 - 17) =    -14.90175  eV     1   --> A              
     e( 18 - 18) =    -13.75296  eV     1   --> A              
     e( 19 - 20) =    -13.49547  eV     2   -->   2 A              
     e( 21 - 21) =    -12.42808  eV     1   --> A              
     e( 22 - 22) =    -12.40857  eV     1   --> A              
     e( 23 - 23) =    -12.40803  eV     1   --> A              
     e( 24 - 24) =    -11.06914  eV     1   --> A              
     e( 25 - 25) =    -10.73340  eV     1   --> A              
     e( 26 - 26) =    -10.73300  eV     1   --> A              
     e( 27 - 27) =    -10.25088  eV     1   --> A              
     e( 28 - 28) =    -10.25068  eV     1   --> A              
     e( 29 - 29) =     -9.86358  eV     1   --> A              
     e( 30 - 30) =     -9.86304  eV     1   --> A              
     e( 31 - 31) =     -8.17493  eV     1   --> A              
     e( 32 - 32) =     -7.87133  eV     1   --> A              
     e( 33 - 33) =     -7.87115  eV     1   --> A              
     e( 34 - 35) =     -7.05850  eV     2   -->   2 A              
     e( 36 - 36) =     -5.98669  eV     1   --> A              
     e( 37 - 37) =     -5.98646  eV     1   --> A              
     e( 38 - 38) =     -5.09321  eV     1   --> A              
     e( 39 - 39) =     -5.09290  eV     1   --> A              
     e( 40 - 40) =     -4.80040  eV     1   --> A              

 **************************************************************************

 **************************************************************************

                    xk=(  -0.50000,   0.00000,   6.09878  )

     point group C_s (m)    
     there are  2 classes
     the character table:

       E     s    
A'     1.00  1.00
A''    1.00 -1.00

     the symmetry operations in each class and the name of the first element:

     E        1
                                                                 
     s        2
                                                                 

     Band symmetry, C_s (m)     point group:

     e(  1 -  1) =    -18.93625  eV     1   --> A'             
     e(  2 -  2) =    -18.93608  eV     1   --> A''            
     e(  3 -  3) =    -18.69167  eV     1   --> A'             
     e(  4 -  4) =    -18.69148  eV     1   --> A''            
     e(  5 -  5) =    -18.69138  eV     1   --> A'             
     e(  6 -  6) =    -18.69123  eV     1   --> A''            
     e(  7 -  7) =    -18.03403  eV     1   --> A'             
     e(  8 -  9) =    -18.03382  eV     2   --> A'             
     e(  8 -  9) =    -18.03382  eV     2   --> A''            
     e( 10 - 10) =    -18.03365  eV     1   --> A''            
     e( 11 - 12) =    -16.53991  eV     2   --> A'             
     e( 11 - 12) =    -16.53991  eV     2   --> A''            
     e( 13 - 14) =    -16.53977  eV     2   --> A'             
     e( 13 - 14) =    -16.53977  eV     2   --> A''            
     e( 15 - 16) =    -15.14256  eV     2   --> A'             
     e( 15 - 16) =    -15.14256  eV     2   --> A''            
     e( 17 - 17) =    -15.14236  eV     1   --> A'             
     e( 18 - 18) =    -15.14221  eV     1   --> A''            
     e( 19 - 19) =    -13.97346  eV     1   --> A'             
     e( 20 - 20) =    -13.97333  eV     1   --> A''            
     e( 21 - 21) =    -12.51697  eV     1   --> A''            
     e( 22 - 22) =    -12.51682  eV     1   --> A'             
     e( 23 - 24) =    -11.36973  eV     2   --> A'             
     e( 23 - 24) =    -11.36973  eV     2   --> A''            
     e( 25 - 25) =    -11.36941  eV     1   --> A''            
     e( 26 - 26) =    -11.36928  eV     1   --> A'             
     e( 27 - 27) =    -10.23547  eV     1   --> A''            
     e( 28 - 28) =    -10.23532  eV     1   --> A'             
     e( 29 - 30) =    -10.23498  eV     2   --> A'             
     e( 29 - 30) =    -10.23498  eV     2   --> A''            
     e( 31 - 31) =     -6.54733  eV     1   --> A''            
     e( 32 - 32) =     -6.54719  eV     1   --> A'             
     e( 33 - 34) =     -6.35952  eV     2   --> A'             
     e( 33 - 34) =     -6.35952  eV     2   --> A''            
     e( 35 - 36) =     -6.35926  eV     2   --> A'             
     e( 35 - 36) =     -6.35926  eV     2   --> A''            
     e( 37 - 37) =     -5.98434  eV     1   --> A'             
     e( 38 - 40) =     -5.98418  eV     3   --> A'             
     e( 38 - 40) =     -5.98418  eV     3   -->   2 A''            

 **************************************************************************

     BANDS        :   3m 0.13s CPU   3m28.55s WALL


   This run was terminated on:  23: 4:55   1Sep2024            

=------------------------------------------------------------------------------=
   JOB DONE.
=------------------------------------------------------------------------------=
