
     Program PWSCF v.6.7MaX starts on  1Sep2024 at 11:38:13 

     This program is part of the open-source Quantum ESPRESSO suite
     for quantum simulation of materials; please cite
         "P. Giannozzi et al., J. Phys.:Condens. Matter 21 395502 (2009);
         "P. Giannozzi et al., J. Phys.:Condens. Matter 29 465901 (2017);
          URL http://www.quantum-espresso.org", 
     in publications or presentations arising from this work. More details at
     http://www.quantum-espresso.org/quote

     Parallel version (MPI), running on     4 processors

     MPI processes distributed on     1 nodes
     R & G space division:  proc/nbgrp/npool/nimage =       4
     Reading input from carbon_nanotube_SCF1.in

     Current dimensions of program PWSCF are:
     Max number of different atomic species (ntypx) = 10
     Max number of k-points (npk) =  40000
     Max angular momentum in pseudopotentials (lmaxx) =  3

     Message from routine set_vdw_corr:
     WARNING: unknown vdw correction (vdw_corr): rVV10. No vdw correction used.

     file C.pbe-n-kjpaw_psl.1.0.0.UPF: wavefunction(s)  2S 2P renormalized

     IMPORTANT: XC functional enforced from input :
     Exchange-correlation= PBE
                           (   1   4   3   4   0   0   0)
     Any further DFT definition will be discarded
     Please, verify this is what you really want


     Subspace diagonalization in iterative solution of the eigenvalue problem:
     one sub-group per band group will be used
     scalapack distributed-memory algorithm (size of sub-group:  2*  2 procs)


     Parallelization info
     --------------------
     sticks:   dense  smooth     PW     G-vecs:    dense   smooth      PW
     Min       20842   10233   3140               371411   127792   21663
     Max       20844   10239   3142               371412   127793   21664
     Sum       83373   40945  12565              1485647   511171   86655



     bravais-lattice index     =            6
     lattice parameter (alat)  =      56.6918  a.u.
     unit-cell volume          =   14937.8366 (a.u.)^3
     number of atoms/cell      =           20
     number of atomic types    =            1
     number of electrons       =        80.00
     number of Kohn-Sham states=           40
     kinetic-energy cutoff     =      40.0000  Ry
     charge density cutoff     =     326.0000  Ry
     scf convergence threshold =      1.0E-08
     mixing beta               =       0.6000
     number of iterations used =            8  plain     mixing
     Exchange-correlation= PBE
                           (   1   4   3   4   0   0   0)

     celldm(1)=  56.691784  celldm(2)=   0.000000  celldm(3)=   0.081984
     celldm(4)=   0.000000  celldm(5)=   0.000000  celldm(6)=   0.000000

     crystal axes: (cart. coord. in units of alat)
               a(1) = (   1.000000   0.000000   0.000000 )  
               a(2) = (   0.000000   1.000000   0.000000 )  
               a(3) = (   0.000000   0.000000   0.081984 )  

     reciprocal axes: (cart. coord. in units 2 pi/alat)
               b(1) = (  1.000000  0.000000  0.000000 )  
               b(2) = (  0.000000  1.000000  0.000000 )  
               b(3) = (  0.000000  0.000000 12.197552 )  


     PseudoPot. # 1 for C  read from file:
     /home/alessandro_rotondi/q-e/pseudo/C.pbe-n-kjpaw_psl.1.0.0.UPF
     MD5 check sum: 5f16ad9a65e90284d1d834d4ab3b0f7d
     Pseudo is Projector augmented-wave + core cor, Zval =  4.0
     Generated using &quot;atomic&quot; code by A. Dal Corso  v.6.3
     Shape of augmentation charge: PSQ
     Using radial grid of 1073 points,  4 beta functions with: 
                l(1) =   0
                l(2) =   0
                l(3) =   1
                l(4) =   1
     Q(r) pseudized with 0 coefficients 


     atomic species   valence    mass     pseudopotential
        C              4.00    12.01070     C ( 1.00)

      2 Sym. Ops. (no inversion) found


                                    s                        frac. trans.

      isym =  1     identity                                     

 cryst.   s( 1) = (     1          0          0      )
                  (     0          1          0      )
                  (     0          0          1      )

 cart.    s( 1) = (  1.0000000  0.0000000  0.0000000 )
                  (  0.0000000  1.0000000  0.0000000 )
                  (  0.0000000  0.0000000  1.0000000 )


      isym =  2     inv. 180 deg rotation - cart. axis [0,0,1]   

 cryst.   s( 2) = (     1          0          0      )
                  (     0          1          0      )
                  (     0          0         -1      )

 cart.    s( 2) = (  1.0000000  0.0000000  0.0000000 )
                  (  0.0000000  1.0000000  0.0000000 )
                  (  0.0000000  0.0000000 -1.0000000 )


     point group C_s (m)    
     there are  2 classes
     the character table:

       E     s    
A'     1.00  1.00
A''    1.00 -1.00

     the symmetry operations in each class and the name of the first element:

     E        1
          identity                                               
     s        2
          inv. 180 deg rotation - cart. axis [0,0,1]             

   Cartesian axes

     site n.     atom                  positions (alat units)
         1           C   tau(   1) = (   0.5349190   0.6074690   0.0409918  )
         2           C   tau(   2) = (   0.4085810   0.5664200   0.0409918  )
         3           C   tau(   3) = (   0.4085810   0.4335800   0.0409918  )
         4           C   tau(   4) = (   0.5349190   0.3925310   0.0409918  )
         5           C   tau(   5) = (   0.6130000   0.5000000   0.0409918  )
         6           C   tau(   6) = (   0.4878370   0.6123440   0.0409918  )
         7           C   tau(   7) = (   0.3893960   0.5231490   0.0409918  )
         8           C   tau(   8) = (   0.4438060   0.4019630   0.0409918  )
         9           C   tau(   9) = (   0.5758740   0.4162610   0.0409918  )
        10           C   tau(  10) = (   0.6030870   0.5462840   0.0409918  )
        11           C   tau(  11) = (   0.4645780   0.6073050   0.0000000  )
        12           C   tau(  12) = (   0.3870010   0.4994700   0.0000000  )
        13           C   tau(  13) = (   0.4655850   0.3923680   0.0000000  )
        14           C   tau(  14) = (   0.5917290   0.4340090   0.0000000  )
        15           C   tau(  15) = (   0.5911070   0.5668480   0.0000000  )
        16           C   tau(  16) = (   0.5566530   0.5977720   0.0000000  )
        17           C   tau(  17) = (   0.4245200   0.5840930   0.0000000  )
        18           C   tau(  18) = (   0.3966980   0.4542000   0.0000000  )
        19           C   tau(  19) = (   0.5116360   0.3876010   0.0000000  )
        20           C   tau(  20) = (   0.6104940   0.4763330   0.0000000  )

   Crystallographic axes

     site n.     atom                  positions (cryst. coord.)
         1           C   tau(   1) = (  0.5349190  0.6074690  0.5000000  )
         2           C   tau(   2) = (  0.4085810  0.5664200  0.5000000  )
         3           C   tau(   3) = (  0.4085810  0.4335800  0.5000000  )
         4           C   tau(   4) = (  0.5349190  0.3925310  0.5000000  )
         5           C   tau(   5) = (  0.6130000  0.5000000  0.5000000  )
         6           C   tau(   6) = (  0.4878370  0.6123440  0.5000000  )
         7           C   tau(   7) = (  0.3893960  0.5231490  0.5000000  )
         8           C   tau(   8) = (  0.4438060  0.4019630  0.5000000  )
         9           C   tau(   9) = (  0.5758740  0.4162610  0.5000000  )
        10           C   tau(  10) = (  0.6030870  0.5462840  0.5000000  )
        11           C   tau(  11) = (  0.4645780  0.6073050  0.0000000  )
        12           C   tau(  12) = (  0.3870010  0.4994700  0.0000000  )
        13           C   tau(  13) = (  0.4655850  0.3923680  0.0000000  )
        14           C   tau(  14) = (  0.5917290  0.4340090  0.0000000  )
        15           C   tau(  15) = (  0.5911070  0.5668480  0.0000000  )
        16           C   tau(  16) = (  0.5566530  0.5977720  0.0000000  )
        17           C   tau(  17) = (  0.4245200  0.5840930  0.0000000  )
        18           C   tau(  18) = (  0.3966980  0.4542000  0.0000000  )
        19           C   tau(  19) = (  0.5116360  0.3876010  0.0000000  )
        20           C   tau(  20) = (  0.6104940  0.4763330  0.0000000  )

     number of k points=    24
                       cart. coord. in units 2pi/alat
        k(    1) = (   0.0000000   0.0000000   0.0000000), wk =   0.0500000
        k(    2) = (   0.0000000   0.0000000   1.2197552), wk =   0.1000000
        k(    3) = (   0.0000000   0.0000000   2.4395103), wk =   0.1000000
        k(    4) = (   0.0000000   0.0000000   3.6592655), wk =   0.1000000
        k(    5) = (   0.0000000   0.0000000   4.8790206), wk =   0.1000000
        k(    6) = (   0.0000000   0.0000000  -6.0987758), wk =   0.0500000
        k(    7) = (   0.0000000  -0.5000000   0.0000000), wk =   0.0500000
        k(    8) = (   0.0000000  -0.5000000   1.2197552), wk =   0.1000000
        k(    9) = (   0.0000000  -0.5000000   2.4395103), wk =   0.1000000
        k(   10) = (   0.0000000  -0.5000000   3.6592655), wk =   0.1000000
        k(   11) = (   0.0000000  -0.5000000   4.8790206), wk =   0.1000000
        k(   12) = (   0.0000000  -0.5000000  -6.0987758), wk =   0.0500000
        k(   13) = (  -0.5000000  -0.5000000   0.0000000), wk =   0.0500000
        k(   14) = (  -0.5000000  -0.5000000   1.2197552), wk =   0.1000000
        k(   15) = (  -0.5000000  -0.5000000   2.4395103), wk =   0.1000000
        k(   16) = (  -0.5000000  -0.5000000   3.6592655), wk =   0.1000000
        k(   17) = (  -0.5000000  -0.5000000   4.8790206), wk =   0.1000000
        k(   18) = (  -0.5000000  -0.5000000  -6.0987758), wk =   0.0500000
        k(   19) = (  -0.5000000   0.0000000   0.0000000), wk =   0.0500000
        k(   20) = (  -0.5000000   0.0000000  -1.2197552), wk =   0.1000000
        k(   21) = (  -0.5000000   0.0000000  -2.4395103), wk =   0.1000000
        k(   22) = (  -0.5000000   0.0000000  -3.6592655), wk =   0.1000000
        k(   23) = (  -0.5000000   0.0000000  -4.8790206), wk =   0.1000000
        k(   24) = (  -0.5000000   0.0000000   6.0987758), wk =   0.0500000

                       cryst. coord.
        k(    1) = (   0.0000000   0.0000000   0.0000000), wk =   0.0500000
        k(    2) = (   0.0000000   0.0000000   0.1000000), wk =   0.1000000
        k(    3) = (   0.0000000   0.0000000   0.2000000), wk =   0.1000000
        k(    4) = (   0.0000000   0.0000000   0.3000000), wk =   0.1000000
        k(    5) = (   0.0000000   0.0000000   0.4000000), wk =   0.1000000
        k(    6) = (   0.0000000   0.0000000  -0.5000000), wk =   0.0500000
        k(    7) = (   0.0000000  -0.5000000   0.0000000), wk =   0.0500000
        k(    8) = (   0.0000000  -0.5000000   0.1000000), wk =   0.1000000
        k(    9) = (   0.0000000  -0.5000000   0.2000000), wk =   0.1000000
        k(   10) = (   0.0000000  -0.5000000   0.3000000), wk =   0.1000000
        k(   11) = (   0.0000000  -0.5000000   0.4000000), wk =   0.1000000
        k(   12) = (   0.0000000  -0.5000000  -0.5000000), wk =   0.0500000
        k(   13) = (  -0.5000000  -0.5000000   0.0000000), wk =   0.0500000
        k(   14) = (  -0.5000000  -0.5000000   0.1000000), wk =   0.1000000
        k(   15) = (  -0.5000000  -0.5000000   0.2000000), wk =   0.1000000
        k(   16) = (  -0.5000000  -0.5000000   0.3000000), wk =   0.1000000
        k(   17) = (  -0.5000000  -0.5000000   0.4000000), wk =   0.1000000
        k(   18) = (  -0.5000000  -0.5000000  -0.5000000), wk =   0.0500000
        k(   19) = (  -0.5000000   0.0000000   0.0000000), wk =   0.0500000
        k(   20) = (  -0.5000000   0.0000000  -0.1000000), wk =   0.1000000
        k(   21) = (  -0.5000000   0.0000000  -0.2000000), wk =   0.1000000
        k(   22) = (  -0.5000000   0.0000000  -0.3000000), wk =   0.1000000
        k(   23) = (  -0.5000000   0.0000000  -0.4000000), wk =   0.1000000
        k(   24) = (  -0.5000000   0.0000000   0.5000000), wk =   0.0500000

     Dense  grid:  1485647 G-vectors     FFT dimensions: ( 360, 360,  27)

     Smooth grid:   511171 G-vectors     FFT dimensions: ( 240, 240,  20)

     Dynamical RAM for                 wfc:       9.74 MB

     Dynamical RAM for     wfc (w. buffer):     243.44 MB

     Dynamical RAM for           str. fact:       5.67 MB

     Dynamical RAM for           local pot:       0.00 MB

     Dynamical RAM for          nlocal pot:      38.95 MB

     Dynamical RAM for                qrad:       0.41 MB

     Dynamical RAM for          rho,v,vnew:      37.77 MB

     Dynamical RAM for               rhoin:      12.59 MB

     Dynamical RAM for            rho*nmix:      90.68 MB

     Dynamical RAM for           G-vectors:      22.23 MB

     Dynamical RAM for          h,s,v(r/c):       0.07 MB

     Dynamical RAM for          <psi|beta>:       0.10 MB

     Dynamical RAM for                 psi:      19.48 MB

     Dynamical RAM for                hpsi:      19.48 MB

     Dynamical RAM for                spsi:      19.48 MB

     Dynamical RAM for      wfcinit/wfcrot:      39.10 MB

     Dynamical RAM for           addusdens:     357.04 MB

     Estimated static dynamical RAM per process >     497.67 MB

     Estimated max dynamical RAM per process >     854.71 MB

     Estimated total dynamical RAM >       3.34 GB

     Check: negative core charge=   -0.000002

     Initial potential from superposition of free atoms

     starting charge   79.99917, renormalised to   80.00000

     negative rho (up, down):  1.455E-03 0.000E+00
     Starting wfcs are   80 randomized atomic wfcs
     Checking if some PAW data can be deallocated... 

     total cpu time spent up to now is      161.1 secs

     Self-consistent Calculation

     iteration #  1     ecut=    40.00 Ry     beta= 0.60
     Davidson diagonalization with overlap
     ethr =  1.00E-02,  avg # of iterations =  2.0

     negative rho (up, down):  3.037E-03 0.000E+00

     total cpu time spent up to now is      452.7 secs

     total energy              =    -368.37380675 Ry
     estimated scf accuracy    <       2.02942861 Ry

     iteration #  2     ecut=    40.00 Ry     beta= 0.60
     Davidson diagonalization with overlap
     ethr =  2.54E-03,  avg # of iterations =  2.0

     negative rho (up, down):  3.812E-03 0.000E+00

     total cpu time spent up to now is      647.0 secs

     total energy              =    -368.56641684 Ry
     estimated scf accuracy    <       0.11458194 Ry

     iteration #  3     ecut=    40.00 Ry     beta= 0.60
     Davidson diagonalization with overlap
     ethr =  1.43E-04,  avg # of iterations =  2.0

     negative rho (up, down):  4.103E-03 0.000E+00

     total cpu time spent up to now is      882.4 secs

     total energy              =    -368.59024268 Ry
     estimated scf accuracy    <       0.02170367 Ry

     iteration #  4     ecut=    40.00 Ry     beta= 0.60
     Davidson diagonalization with overlap
     ethr =  2.71E-05,  avg # of iterations =  2.0

     negative rho (up, down):  4.246E-03 0.000E+00

     total cpu time spent up to now is     1117.3 secs

     total energy              =    -368.59493196 Ry
     estimated scf accuracy    <       0.00124245 Ry

     iteration #  5     ecut=    40.00 Ry     beta= 0.60
     Davidson diagonalization with overlap
     ethr =  1.55E-06,  avg # of iterations =  2.0

     negative rho (up, down):  4.283E-03 0.000E+00

     total cpu time spent up to now is     1375.0 secs

     total energy              =    -368.59509858 Ry
     estimated scf accuracy    <       0.00002851 Ry

     iteration #  6     ecut=    40.00 Ry     beta= 0.60
     Davidson diagonalization with overlap
     ethr =  3.56E-08,  avg # of iterations =  5.2

     negative rho (up, down):  4.298E-03 0.000E+00

     total cpu time spent up to now is     1706.2 secs

     total energy              =    -368.59511480 Ry
     estimated scf accuracy    <       0.00000104 Ry

     iteration #  7     ecut=    40.00 Ry     beta= 0.60
     Davidson diagonalization with overlap
     ethr =  1.30E-09,  avg # of iterations =  5.2

     negative rho (up, down):  4.303E-03 0.000E+00

     total cpu time spent up to now is     2022.7 secs

     total energy              =    -368.59511545 Ry
     estimated scf accuracy    <       0.00000041 Ry

     iteration #  8     ecut=    40.00 Ry     beta= 0.60
     Davidson diagonalization with overlap
     ethr =  5.16E-10,  avg # of iterations =  3.7

     negative rho (up, down):  4.305E-03 0.000E+00

     total cpu time spent up to now is     2249.1 secs

     total energy              =    -368.59511549 Ry
     estimated scf accuracy    <       0.00000005 Ry

     iteration #  9     ecut=    40.00 Ry     beta= 0.60
     Davidson diagonalization with overlap
     ethr =  6.37E-11,  avg # of iterations =  4.8

     negative rho (up, down):  4.307E-03 0.000E+00

     total cpu time spent up to now is     2483.6 secs

     End of self-consistent calculation

          k = 0.0000 0.0000 0.0000 ( 63941 PWs)   bands (ev):

   -23.3544 -23.0817 -23.0816 -22.2858 -22.2857 -20.9921 -20.9920 -19.3147
   -19.3147 -17.6707 -16.7547 -14.8415 -14.8415 -12.4118 -12.4118 -11.4417
   -11.1290 -11.1289 -10.6085 -10.6084 -10.0584  -9.8072  -9.8071  -9.1376
    -9.1376  -9.0884  -9.0883  -8.3077  -8.3077  -8.0075  -8.0074  -7.4969
    -7.4967  -6.9083  -6.9082  -6.6339  -6.5010  -6.5010  -6.3915  -5.2233

     occupation numbers 
     1.0000   1.0000   1.0000   1.0000   1.0000   1.0000   1.0000   1.0000
     1.0000   1.0000   1.0000   1.0000   1.0000   1.0000   1.0000   1.0000
     1.0000   1.0000   1.0000   1.0000   1.0000   1.0000   1.0000   1.0000
     1.0000   1.0000   1.0000   1.0000   1.0000   1.0000   1.0000   1.0000
     1.0000   1.0000   1.0000   1.0000   1.0000   1.0000   1.0000   1.0000

          k = 0.0000 0.0000 1.2198 ( 63989 PWs)   bands (ev):

   -23.1754 -22.9035 -22.9034 -22.1098 -22.1097 -20.8201 -20.8200 -19.1502
   -19.1502 -17.5178 -16.6085 -14.7240 -14.7240 -12.3653 -12.3652 -11.2343
   -10.9292 -10.9291 -10.8166 -10.5548 -10.5546 -10.5390 -10.5389  -9.7942
    -9.7940  -9.1963  -9.1962  -8.5585  -8.5585  -8.1203  -8.1203  -7.9732
    -7.9731  -7.3273  -7.3272  -7.0759  -6.9872  -6.3136  -6.3136  -5.0181

     occupation numbers 
     1.0000   1.0000   1.0000   1.0000   1.0000   1.0000   1.0000   1.0000
     1.0000   1.0000   1.0000   1.0000   1.0000   1.0000   1.0000   1.0000
     1.0000   1.0000   1.0000   1.0000   1.0000   1.0000   1.0000   1.0000
     1.0000   1.0000   1.0000   1.0000   1.0000   1.0000   1.0000   1.0000
     1.0000   1.0000   1.0000   1.0000   1.0000   1.0000   1.0000   1.0000

          k = 0.0000 0.0000 2.4395 ( 63941 PWs)   bands (ev):

   -22.6406 -22.3709 -22.3708 -21.5841 -21.5841 -20.3071 -20.3071 -18.6614
   -18.6614 -17.0600 -16.2147 -14.4620 -14.4619 -12.5822 -12.5821 -12.5258
   -12.1853 -12.1852 -11.1165 -11.1165 -11.0416 -11.0415 -10.6276 -10.3957
   -10.3957  -9.6536  -9.6536  -9.4864  -9.4863  -8.6712  -8.6711  -8.6644
    -7.9566  -7.9564  -7.9530  -7.5743  -7.5743  -5.7811  -5.7810  -4.4077

     occupation numbers 
     1.0000   1.0000   1.0000   1.0000   1.0000   1.0000   1.0000   1.0000
     1.0000   1.0000   1.0000   1.0000   1.0000   1.0000   1.0000   1.0000
     1.0000   1.0000   1.0000   1.0000   1.0000   1.0000   1.0000   1.0000
     1.0000   1.0000   1.0000   1.0000   1.0000   1.0000   1.0000   1.0000
     1.0000   1.0000   1.0000   1.0000   1.0000   1.0000   1.0000   1.0000

          k = 0.0000 0.0000 3.6593 ( 63665 PWs)   bands (ev):

   -21.7571 -21.4913 -21.4912 -20.7172 -20.7171 -19.4653 -19.4652 -17.8772
   -17.8772 -16.3000 -16.0105 -15.0085 -15.0085 -14.1346 -14.1345 -14.0378
   -13.0155 -13.0154 -12.9498 -12.9497 -11.5622 -11.5621 -11.0969 -11.0969
   -10.5167  -9.8941  -9.5868  -9.5867  -9.4748  -9.4748  -9.0558  -8.6484
    -8.6483  -8.0454  -8.0454  -6.7364  -6.7363  -5.0648  -5.0648  -3.4103

     occupation numbers 
     1.0000   1.0000   1.0000   1.0000   1.0000   1.0000   1.0000   1.0000
     1.0000   1.0000   1.0000   1.0000   1.0000   1.0000   1.0000   1.0000
     1.0000   1.0000   1.0000   1.0000   1.0000   1.0000   1.0000   1.0000
     1.0000   1.0000   1.0000   1.0000   1.0000   1.0000   1.0000   1.0000
     1.0000   1.0000   1.0000   1.0000   1.0000   1.0000   1.0000   1.0000

          k = 0.0000 0.0000 4.8790 ( 63698 PWs)   bands (ev):

   -20.5401 -20.2810 -20.2809 -19.5318 -19.5317 -18.3522 -18.3522 -17.3167
   -17.3166 -17.3063 -16.2324 -16.2324 -16.0037 -16.0036 -15.2439 -14.8784
   -14.8784 -13.7008 -13.4402 -13.4402 -12.3346 -12.3345 -12.3089 -11.0288
   -10.6249 -10.6249 -10.1420 -10.1420  -9.7173  -9.7172  -8.0831  -7.7768
    -7.7767  -6.9602  -6.9602  -5.8735  -5.8735  -4.9937  -4.9936  -4.7124

     occupation numbers 
     1.0000   1.0000   1.0000   1.0000   1.0000   1.0000   1.0000   1.0000
     1.0000   1.0000   1.0000   1.0000   1.0000   1.0000   1.0000   1.0000
     1.0000   1.0000   1.0000   1.0000   1.0000   1.0000   1.0000   1.0000
     1.0000   1.0000   1.0000   1.0000   1.0000   1.0000   1.0000   1.0000
     1.0000   1.0000   1.0000   1.0000   1.0000   1.0000   1.0000   1.0000

          k = 0.0000 0.0000-6.0988 ( 63698 PWs)   bands (ev):

   -19.0665 -18.9782 -18.8318 -18.8317 -18.7298 -18.7297 -18.2339 -18.2338
   -18.0577 -18.0574 -16.5461 -16.5460 -16.4681 -16.4679 -15.1166 -15.1166
   -15.1082 -15.1081 -13.9204 -13.8884 -12.5360 -12.4322 -11.3482 -11.3481
   -11.2195 -11.2194 -10.1895 -10.1894 -10.0182 -10.0180  -6.5167  -6.3930
    -6.3316  -6.3315  -6.1966  -6.1966  -5.9733  -5.9731  -5.8085  -5.8083

     occupation numbers 
     1.0000   1.0000   1.0000   1.0000   1.0000   1.0000   1.0000   1.0000
     1.0000   1.0000   1.0000   1.0000   1.0000   1.0000   1.0000   1.0000
     1.0000   1.0000   1.0000   1.0000   1.0000   1.0000   1.0000   1.0000
     1.0000   1.0000   1.0000   1.0000   1.0000   1.0000   1.0000   1.0000
     1.0000   1.0000   1.0000   1.0000   1.0000   1.0000   1.0000   1.0000

          k = 0.0000-0.5000 0.0000 ( 64074 PWs)   bands (ev):

   -23.3544 -23.0817 -23.0816 -22.2858 -22.2858 -20.9921 -20.9920 -19.3147
   -19.3147 -17.6707 -16.7547 -14.8415 -14.8415 -12.4119 -12.4118 -11.4417
   -11.1290 -11.1290 -10.6085 -10.6085 -10.0585  -9.8073  -9.8071  -9.1377
    -9.1376  -9.0885  -9.0883  -8.3078  -8.3078  -8.0075  -8.0074  -7.4969
    -7.4968  -6.9083  -6.9082  -6.6340  -6.5011  -6.5010  -6.3916  -5.2233

     occupation numbers 
     1.0000   1.0000   1.0000   1.0000   1.0000   1.0000   1.0000   1.0000
     1.0000   1.0000   1.0000   1.0000   1.0000   1.0000   1.0000   1.0000
     1.0000   1.0000   1.0000   1.0000   1.0000   1.0000   1.0000   1.0000
     1.0000   1.0000   1.0000   1.0000   1.0000   1.0000   1.0000   1.0000
     1.0000   1.0000   1.0000   1.0000   1.0000   1.0000   1.0000   1.0000

          k = 0.0000-0.5000 1.2198 ( 63952 PWs)   bands (ev):

   -23.1754 -22.9035 -22.9034 -22.1098 -22.1097 -20.8201 -20.8200 -19.1502
   -19.1502 -17.5178 -16.6085 -14.7240 -14.7240 -12.3653 -12.3652 -11.2343
   -10.9292 -10.9291 -10.8166 -10.5547 -10.5546 -10.5390 -10.5389  -9.7942
    -9.7941  -9.1962  -9.1962  -8.5585  -8.5585  -8.1203  -8.1203  -7.9732
    -7.9731  -7.3273  -7.3271  -7.0759  -6.9872  -6.3136  -6.3136  -5.0181

     occupation numbers 
     1.0000   1.0000   1.0000   1.0000   1.0000   1.0000   1.0000   1.0000
     1.0000   1.0000   1.0000   1.0000   1.0000   1.0000   1.0000   1.0000
     1.0000   1.0000   1.0000   1.0000   1.0000   1.0000   1.0000   1.0000
     1.0000   1.0000   1.0000   1.0000   1.0000   1.0000   1.0000   1.0000
     1.0000   1.0000   1.0000   1.0000   1.0000   1.0000   1.0000   1.0000

          k = 0.0000-0.5000 2.4395 ( 63874 PWs)   bands (ev):

   -22.6406 -22.3709 -22.3708 -21.5841 -21.5841 -20.3071 -20.3071 -18.6614
   -18.6614 -17.0600 -16.2147 -14.4620 -14.4619 -12.5821 -12.5821 -12.5258
   -12.1852 -12.1852 -11.1165 -11.1165 -11.0416 -11.0415 -10.6276 -10.3957
   -10.3957  -9.6536  -9.6535  -9.4864  -9.4863  -8.6711  -8.6711  -8.6644
    -7.9565  -7.9564  -7.9529  -7.5743  -7.5743  -5.7810  -5.7810  -4.4077

     occupation numbers 
     1.0000   1.0000   1.0000   1.0000   1.0000   1.0000   1.0000   1.0000
     1.0000   1.0000   1.0000   1.0000   1.0000   1.0000   1.0000   1.0000
     1.0000   1.0000   1.0000   1.0000   1.0000   1.0000   1.0000   1.0000
     1.0000   1.0000   1.0000   1.0000   1.0000   1.0000   1.0000   1.0000
     1.0000   1.0000   1.0000   1.0000   1.0000   1.0000   1.0000   1.0000

          k = 0.0000-0.5000 3.6593 ( 63630 PWs)   bands (ev):

   -21.7571 -21.4913 -21.4912 -20.7172 -20.7171 -19.4653 -19.4652 -17.8772
   -17.8772 -16.3000 -16.0106 -15.0085 -15.0085 -14.1346 -14.1345 -14.0377
   -13.0155 -13.0154 -12.9498 -12.9497 -11.5622 -11.5621 -11.0969 -11.0968
   -10.5167  -9.8941  -9.5868  -9.5867  -9.4748  -9.4748  -9.0558  -8.6484
    -8.6483  -8.0454  -8.0454  -6.7364  -6.7363  -5.0648  -5.0648  -3.4103

     occupation numbers 
     1.0000   1.0000   1.0000   1.0000   1.0000   1.0000   1.0000   1.0000
     1.0000   1.0000   1.0000   1.0000   1.0000   1.0000   1.0000   1.0000
     1.0000   1.0000   1.0000   1.0000   1.0000   1.0000   1.0000   1.0000
     1.0000   1.0000   1.0000   1.0000   1.0000   1.0000   1.0000   1.0000
     1.0000   1.0000   1.0000   1.0000   1.0000   1.0000   1.0000   1.0000

          k = 0.0000-0.5000 4.8790 ( 63680 PWs)   bands (ev):

   -20.5401 -20.2810 -20.2809 -19.5318 -19.5317 -18.3522 -18.3522 -17.3167
   -17.3166 -17.3063 -16.2324 -16.2324 -16.0036 -16.0036 -15.2439 -14.8784
   -14.8784 -13.7008 -13.4402 -13.4402 -12.3346 -12.3345 -12.3089 -11.0288
   -10.6249 -10.6249 -10.1420 -10.1420  -9.7173  -9.7173  -8.0831  -7.7768
    -7.7767  -6.9602  -6.9602  -5.8735  -5.8735  -4.9937  -4.9937  -4.7124

     occupation numbers 
     1.0000   1.0000   1.0000   1.0000   1.0000   1.0000   1.0000   1.0000
     1.0000   1.0000   1.0000   1.0000   1.0000   1.0000   1.0000   1.0000
     1.0000   1.0000   1.0000   1.0000   1.0000   1.0000   1.0000   1.0000
     1.0000   1.0000   1.0000   1.0000   1.0000   1.0000   1.0000   1.0000
     1.0000   1.0000   1.0000   1.0000   1.0000   1.0000   1.0000   1.0000

          k = 0.0000-0.5000-6.0988 ( 63732 PWs)   bands (ev):

   -19.0665 -18.9782 -18.8318 -18.8317 -18.7298 -18.7297 -18.2339 -18.2338
   -18.0577 -18.0575 -16.5461 -16.5460 -16.4681 -16.4680 -15.1166 -15.1166
   -15.1082 -15.1081 -13.9204 -13.8884 -12.5360 -12.4322 -11.3482 -11.3481
   -11.2195 -11.2194 -10.1896 -10.1894 -10.0182 -10.0180  -6.5167  -6.3930
    -6.3316  -6.3315  -6.1966  -6.1966  -5.9733  -5.9731  -5.8085  -5.8083

     occupation numbers 
     1.0000   1.0000   1.0000   1.0000   1.0000   1.0000   1.0000   1.0000
     1.0000   1.0000   1.0000   1.0000   1.0000   1.0000   1.0000   1.0000
     1.0000   1.0000   1.0000   1.0000   1.0000   1.0000   1.0000   1.0000
     1.0000   1.0000   1.0000   1.0000   1.0000   1.0000   1.0000   1.0000
     1.0000   1.0000   1.0000   1.0000   1.0000   1.0000   1.0000   1.0000

          k =-0.5000-0.5000 0.0000 ( 64064 PWs)   bands (ev):

   -23.3544 -23.0817 -23.0816 -22.2858 -22.2857 -20.9921 -20.9920 -19.3147
   -19.3147 -17.6707 -16.7547 -14.8415 -14.8415 -12.4118 -12.4118 -11.4417
   -11.1290 -11.1290 -10.6085 -10.6084 -10.0585  -9.8072  -9.8071  -9.1377
    -9.1376  -9.0884  -9.0884  -8.3078  -8.3078  -8.0075  -8.0074  -7.4969
    -7.4968  -6.9083  -6.9082  -6.6339  -6.5011  -6.5010  -6.3915  -5.2233

     occupation numbers 
     1.0000   1.0000   1.0000   1.0000   1.0000   1.0000   1.0000   1.0000
     1.0000   1.0000   1.0000   1.0000   1.0000   1.0000   1.0000   1.0000
     1.0000   1.0000   1.0000   1.0000   1.0000   1.0000   1.0000   1.0000
     1.0000   1.0000   1.0000   1.0000   1.0000   1.0000   1.0000   1.0000
     1.0000   1.0000   1.0000   1.0000   1.0000   1.0000   1.0000   1.0000

          k =-0.5000-0.5000 1.2198 ( 64004 PWs)   bands (ev):

   -23.1754 -22.9035 -22.9034 -22.1098 -22.1098 -20.8201 -20.8200 -19.1502
   -19.1502 -17.5178 -16.6085 -14.7240 -14.7240 -12.3653 -12.3652 -11.2343
   -10.9292 -10.9292 -10.8166 -10.5547 -10.5546 -10.5390 -10.5389  -9.7941
    -9.7941  -9.1963  -9.1962  -8.5585  -8.5585  -8.1203  -8.1203  -7.9732
    -7.9731  -7.3272  -7.3271  -7.0758  -6.9872  -6.3136  -6.3136  -5.0181

     occupation numbers 
     1.0000   1.0000   1.0000   1.0000   1.0000   1.0000   1.0000   1.0000
     1.0000   1.0000   1.0000   1.0000   1.0000   1.0000   1.0000   1.0000
     1.0000   1.0000   1.0000   1.0000   1.0000   1.0000   1.0000   1.0000
     1.0000   1.0000   1.0000   1.0000   1.0000   1.0000   1.0000   1.0000
     1.0000   1.0000   1.0000   1.0000   1.0000   1.0000   1.0000   1.0000

          k =-0.5000-0.5000 2.4395 ( 63868 PWs)   bands (ev):

   -22.6406 -22.3709 -22.3708 -21.5841 -21.5841 -20.3071 -20.3071 -18.6614
   -18.6614 -17.0600 -16.2147 -14.4620 -14.4619 -12.5821 -12.5821 -12.5258
   -12.1852 -12.1852 -11.1165 -11.1165 -11.0416 -11.0415 -10.6276 -10.3957
   -10.3957  -9.6536  -9.6535  -9.4864  -9.4863  -8.6711  -8.6711  -8.6644
    -7.9565  -7.9564  -7.9529  -7.5743  -7.5743  -5.7810  -5.7810  -4.4077

     occupation numbers 
     1.0000   1.0000   1.0000   1.0000   1.0000   1.0000   1.0000   1.0000
     1.0000   1.0000   1.0000   1.0000   1.0000   1.0000   1.0000   1.0000
     1.0000   1.0000   1.0000   1.0000   1.0000   1.0000   1.0000   1.0000
     1.0000   1.0000   1.0000   1.0000   1.0000   1.0000   1.0000   1.0000
     1.0000   1.0000   1.0000   1.0000   1.0000   1.0000   1.0000   1.0000

          k =-0.5000-0.5000 3.6593 ( 63660 PWs)   bands (ev):

   -21.7571 -21.4913 -21.4912 -20.7172 -20.7171 -19.4653 -19.4652 -17.8772
   -17.8772 -16.3000 -16.0106 -15.0085 -15.0085 -14.1346 -14.1345 -14.0378
   -13.0155 -13.0154 -12.9498 -12.9497 -11.5622 -11.5621 -11.0969 -11.0969
   -10.5167  -9.8941  -9.5868  -9.5868  -9.4748  -9.4748  -9.0558  -8.6484
    -8.6483  -8.0454  -8.0454  -6.7364  -6.7364  -5.0648  -5.0648  -3.4103

     occupation numbers 
     1.0000   1.0000   1.0000   1.0000   1.0000   1.0000   1.0000   1.0000
     1.0000   1.0000   1.0000   1.0000   1.0000   1.0000   1.0000   1.0000
     1.0000   1.0000   1.0000   1.0000   1.0000   1.0000   1.0000   1.0000
     1.0000   1.0000   1.0000   1.0000   1.0000   1.0000   1.0000   1.0000
     1.0000   1.0000   1.0000   1.0000   1.0000   1.0000   1.0000   1.0000

          k =-0.5000-0.5000 4.8790 ( 63620 PWs)   bands (ev):

   -20.5401 -20.2810 -20.2809 -19.5318 -19.5317 -18.3522 -18.3522 -17.3167
   -17.3166 -17.3063 -16.2324 -16.2324 -16.0036 -16.0036 -15.2439 -14.8784
   -14.8784 -13.7008 -13.4402 -13.4402 -12.3346 -12.3345 -12.3089 -11.0288
   -10.6249 -10.6249 -10.1420 -10.1419  -9.7173  -9.7172  -8.0831  -7.7767
    -7.7767  -6.9602  -6.9602  -5.8735  -5.8735  -4.9937  -4.9936  -4.7124

     occupation numbers 
     1.0000   1.0000   1.0000   1.0000   1.0000   1.0000   1.0000   1.0000
     1.0000   1.0000   1.0000   1.0000   1.0000   1.0000   1.0000   1.0000
     1.0000   1.0000   1.0000   1.0000   1.0000   1.0000   1.0000   1.0000
     1.0000   1.0000   1.0000   1.0000   1.0000   1.0000   1.0000   1.0000
     1.0000   1.0000   1.0000   1.0000   1.0000   1.0000   1.0000   1.0000

          k =-0.5000-0.5000-6.0988 ( 63856 PWs)   bands (ev):

   -19.0665 -18.9782 -18.8318 -18.8317 -18.7298 -18.7297 -18.2339 -18.2338
   -18.0577 -18.0575 -16.5462 -16.5460 -16.4681 -16.4680 -15.1166 -15.1166
   -15.1082 -15.1082 -13.9204 -13.8884 -12.5360 -12.4322 -11.3482 -11.3482
   -11.2196 -11.2195 -10.1896 -10.1895 -10.0183 -10.0180  -6.5167  -6.3931
    -6.3316  -6.3315  -6.1967  -6.1966  -5.9733  -5.9732  -5.8086  -5.8083

     occupation numbers 
     1.0000   1.0000   1.0000   1.0000   1.0000   1.0000   1.0000   1.0000
     1.0000   1.0000   1.0000   1.0000   1.0000   1.0000   1.0000   1.0000
     1.0000   1.0000   1.0000   1.0000   1.0000   1.0000   1.0000   1.0000
     1.0000   1.0000   1.0000   1.0000   1.0000   1.0000   1.0000   1.0000
     1.0000   1.0000   1.0000   1.0000   1.0000   1.0000   1.0000   1.0000

          k =-0.5000 0.0000 0.0000 ( 64074 PWs)   bands (ev):

   -23.3544 -23.0817 -23.0816 -22.2858 -22.2858 -20.9921 -20.9920 -19.3147
   -19.3147 -17.6707 -16.7547 -14.8415 -14.8415 -12.4118 -12.4118 -11.4417
   -11.1290 -11.1290 -10.6085 -10.6084 -10.0585  -9.8073  -9.8071  -9.1377
    -9.1376  -9.0884  -9.0884  -8.3078  -8.3077  -8.0075  -8.0075  -7.4970
    -7.4968  -6.9084  -6.9083  -6.6340  -6.5011  -6.5011  -6.3915  -5.2233

     occupation numbers 
     1.0000   1.0000   1.0000   1.0000   1.0000   1.0000   1.0000   1.0000
     1.0000   1.0000   1.0000   1.0000   1.0000   1.0000   1.0000   1.0000
     1.0000   1.0000   1.0000   1.0000   1.0000   1.0000   1.0000   1.0000
     1.0000   1.0000   1.0000   1.0000   1.0000   1.0000   1.0000   1.0000
     1.0000   1.0000   1.0000   1.0000   1.0000   1.0000   1.0000   1.0000

          k =-0.5000 0.0000-1.2198 ( 63952 PWs)   bands (ev):

   -23.1754 -22.9035 -22.9034 -22.1098 -22.1097 -20.8201 -20.8200 -19.1502
   -19.1502 -17.5178 -16.6085 -14.7240 -14.7240 -12.3653 -12.3652 -11.2343
   -10.9292 -10.9291 -10.8166 -10.5547 -10.5546 -10.5390 -10.5389  -9.7941
    -9.7941  -9.1963  -9.1962  -8.5585  -8.5585  -8.1203  -8.1203  -7.9732
    -7.9731  -7.3273  -7.3271  -7.0759  -6.9872  -6.3136  -6.3136  -5.0181

     occupation numbers 
     1.0000   1.0000   1.0000   1.0000   1.0000   1.0000   1.0000   1.0000
     1.0000   1.0000   1.0000   1.0000   1.0000   1.0000   1.0000   1.0000
     1.0000   1.0000   1.0000   1.0000   1.0000   1.0000   1.0000   1.0000
     1.0000   1.0000   1.0000   1.0000   1.0000   1.0000   1.0000   1.0000
     1.0000   1.0000   1.0000   1.0000   1.0000   1.0000   1.0000   1.0000

          k =-0.5000 0.0000-2.4395 ( 63874 PWs)   bands (ev):

   -22.6406 -22.3709 -22.3708 -21.5841 -21.5841 -20.3071 -20.3071 -18.6614
   -18.6614 -17.0600 -16.2147 -14.4620 -14.4619 -12.5821 -12.5821 -12.5258
   -12.1853 -12.1852 -11.1165 -11.1165 -11.0416 -11.0415 -10.6276 -10.3957
   -10.3957  -9.6536  -9.6535  -9.4864  -9.4863  -8.6711  -8.6711  -8.6644
    -7.9565  -7.9564  -7.9529  -7.5743  -7.5743  -5.7810  -5.7810  -4.4077

     occupation numbers 
     1.0000   1.0000   1.0000   1.0000   1.0000   1.0000   1.0000   1.0000
     1.0000   1.0000   1.0000   1.0000   1.0000   1.0000   1.0000   1.0000
     1.0000   1.0000   1.0000   1.0000   1.0000   1.0000   1.0000   1.0000
     1.0000   1.0000   1.0000   1.0000   1.0000   1.0000   1.0000   1.0000
     1.0000   1.0000   1.0000   1.0000   1.0000   1.0000   1.0000   1.0000

          k =-0.5000 0.0000-3.6593 ( 63630 PWs)   bands (ev):

   -21.7571 -21.4913 -21.4912 -20.7172 -20.7171 -19.4653 -19.4652 -17.8772
   -17.8772 -16.3000 -16.0105 -15.0085 -15.0085 -14.1346 -14.1345 -14.0377
   -13.0155 -13.0154 -12.9498 -12.9497 -11.5622 -11.5621 -11.0969 -11.0968
   -10.5167  -9.8941  -9.5868  -9.5867  -9.4748  -9.4748  -9.0558  -8.6484
    -8.6483  -8.0454  -8.0454  -6.7364  -6.7363  -5.0648  -5.0648  -3.4103

     occupation numbers 
     1.0000   1.0000   1.0000   1.0000   1.0000   1.0000   1.0000   1.0000
     1.0000   1.0000   1.0000   1.0000   1.0000   1.0000   1.0000   1.0000
     1.0000   1.0000   1.0000   1.0000   1.0000   1.0000   1.0000   1.0000
     1.0000   1.0000   1.0000   1.0000   1.0000   1.0000   1.0000   1.0000
     1.0000   1.0000   1.0000   1.0000   1.0000   1.0000   1.0000   1.0000

          k =-0.5000 0.0000-4.8790 ( 63680 PWs)   bands (ev):

   -20.5401 -20.2810 -20.2809 -19.5318 -19.5317 -18.3522 -18.3522 -17.3167
   -17.3166 -17.3063 -16.2324 -16.2324 -16.0036 -16.0036 -15.2439 -14.8784
   -14.8784 -13.7008 -13.4402 -13.4402 -12.3346 -12.3345 -12.3089 -11.0288
   -10.6249 -10.6249 -10.1420 -10.1420  -9.7173  -9.7173  -8.0831  -7.7768
    -7.7767  -6.9602  -6.9602  -5.8735  -5.8735  -4.9937  -4.9936  -4.7124

     occupation numbers 
     1.0000   1.0000   1.0000   1.0000   1.0000   1.0000   1.0000   1.0000
     1.0000   1.0000   1.0000   1.0000   1.0000   1.0000   1.0000   1.0000
     1.0000   1.0000   1.0000   1.0000   1.0000   1.0000   1.0000   1.0000
     1.0000   1.0000   1.0000   1.0000   1.0000   1.0000   1.0000   1.0000
     1.0000   1.0000   1.0000   1.0000   1.0000   1.0000   1.0000   1.0000

          k =-0.5000 0.0000 6.0988 ( 63732 PWs)   bands (ev):

   -19.0665 -18.9782 -18.8318 -18.8317 -18.7298 -18.7297 -18.2339 -18.2338
   -18.0577 -18.0574 -16.5461 -16.5460 -16.4681 -16.4680 -15.1166 -15.1166
   -15.1082 -15.1081 -13.9204 -13.8884 -12.5360 -12.4322 -11.3481 -11.3481
   -11.2195 -11.2194 -10.1896 -10.1894 -10.0182 -10.0180  -6.5167  -6.3930
    -6.3315  -6.3315  -6.1966  -6.1966  -5.9733  -5.9731  -5.8085  -5.8083

     occupation numbers 
     1.0000   1.0000   1.0000   1.0000   1.0000   1.0000   1.0000   1.0000
     1.0000   1.0000   1.0000   1.0000   1.0000   1.0000   1.0000   1.0000
     1.0000   1.0000   1.0000   1.0000   1.0000   1.0000   1.0000   1.0000
     1.0000   1.0000   1.0000   1.0000   1.0000   1.0000   1.0000   1.0000
     1.0000   1.0000   1.0000   1.0000   1.0000   1.0000   1.0000   1.0000

     highest occupied level (ev):    -3.4103

!    total energy              =    -368.59511550 Ry

     total all-electron energy =     -1523.877060 Ry
     estimated scf accuracy    <          7.0E-09 Ry

     The total energy is the sum of the following terms:
     one-electron contribution =   -4545.90314474 Ry
     hartree contribution      =    2283.98837404 Ry
     xc contribution           =     -92.97764544 Ry
     ewald contribution        =    2109.64869290 Ry
     one-center paw contrib.   =    -123.35139226 Ry
      -> PAW hartree energy AE =      47.67787578 Ry
      -> PAW hartree energy PS =     -47.63449125 Ry
      -> PAW xc energy AE      =     -53.42504365 Ry
      -> PAW xc energy PS      =      22.54537961 Ry
      -> total E_H with PAW    =    2284.03175857 Ry
      -> total E_XC with PAW   =    -123.85730948 Ry

     convergence has been achieved in   9 iterations

     Writing output data file ./tmp/carbon_nanotube.save/

     init_run     :    158.44s CPU    160.98s WALL (       1 calls)
     electrons    :   2289.71s CPU   2322.75s WALL (       1 calls)

     Called by init_run:
     wfcinit      :    148.20s CPU    150.26s WALL (       1 calls)
     wfcinit:atom :      0.56s CPU      0.56s WALL (      24 calls)
     wfcinit:wfcr :    145.17s CPU    147.22s WALL (      24 calls)
     potinit      :      3.28s CPU      3.45s WALL (       1 calls)
     hinit0       :      3.51s CPU      3.58s WALL (       1 calls)

     Called by electrons:
     c_bands      :   1999.02s CPU   2023.03s WALL (       9 calls)
     sum_band     :    255.66s CPU    261.85s WALL (       9 calls)
     v_of_rho     :     12.49s CPU     13.56s WALL (      10 calls)
     v_h          :      1.15s CPU      1.21s WALL (      10 calls)
     v_xc         :     11.34s CPU     12.35s WALL (      10 calls)
     newd         :     20.16s CPU     21.96s WALL (      10 calls)
     PAW_pot      :      2.27s CPU      2.28s WALL (      10 calls)
     mix_rho      :      2.35s CPU      2.47s WALL (       9 calls)

     Called by c_bands:
     init_us_2    :     10.79s CPU     10.83s WALL (     456 calls)
     cegterg      :   1972.74s CPU   1996.68s WALL (     216 calls)

     Called by sum_band:
     sum_band:wei :      0.00s CPU      0.00s WALL (       9 calls)
     sum_band:loo :    226.50s CPU    230.46s WALL (       9 calls)
     sum_band:buf :      1.26s CPU      1.26s WALL (     216 calls)
     sum_band:ini :      5.05s CPU      5.05s WALL (     216 calls)
     sum_band:cal :     81.26s CPU     81.30s WALL (     216 calls)
     sum_band:bec :      0.02s CPU      0.02s WALL (     216 calls)
     addusdens    :     27.17s CPU     29.31s WALL (       9 calls)
     addusd:skk   :      0.36s CPU      0.96s WALL (       9 calls)
     addusd:dgemm :     22.29s CPU     23.71s WALL (       9 calls)
     addusd:qvan2 :      3.94s CPU      3.95s WALL (       9 calls)

     Called by *egterg:
     cdiaghg      :      3.67s CPU      3.73s WALL (     908 calls)
     cegterg:over :    174.45s CPU    174.48s WALL (     692 calls)
     cegterg:upda :     87.04s CPU     87.20s WALL (     692 calls)
     cegterg:last :    193.44s CPU    193.60s WALL (     494 calls)
     cdiaghg:chol :      0.31s CPU      0.31s WALL (     908 calls)
     cdiaghg:inve :      0.03s CPU      0.03s WALL (     908 calls)
     cdiaghg:para :      0.97s CPU      0.98s WALL (    1816 calls)
     h_psi        :   1353.31s CPU   1378.27s WALL (     932 calls)
     s_psi        :    232.51s CPU    232.62s WALL (     932 calls)
     g_psi        :      5.04s CPU      5.07s WALL (     692 calls)

     Called by h_psi:
     h_psi:calbec :    260.03s CPU    260.30s WALL (     932 calls)
     vloc_psi     :    855.24s CPU    879.63s WALL (     932 calls)
     add_vuspsi   :    234.95s CPU    234.96s WALL (     932 calls)

     General routines
     calbec       :    341.28s CPU    341.59s WALL (    1148 calls)
     fft          :     10.98s CPU     11.59s WALL (     128 calls)
     ffts         :      0.53s CPU      0.55s WALL (      19 calls)
     fftw         :    857.50s CPU    882.55s WALL (   63082 calls)
     interpolate  :      1.32s CPU      1.37s WALL (      10 calls)

     Parallel routines
     fft_scatt_xy :    146.52s CPU    150.57s WALL (   63229 calls)
     fft_scatt_yz :    249.59s CPU    262.63s WALL (   63229 calls)

     PAW routines
     PAW_pot      :      2.27s CPU      2.28s WALL (      10 calls)
     PAW_symme    :      0.02s CPU      0.02s WALL (      19 calls)

     PWSCF        :  40m49.29s CPU  41m27.33s WALL


   This run was terminated on:  12:19:41   1Sep2024            

=------------------------------------------------------------------------------=
   JOB DONE.
=------------------------------------------------------------------------------=
