
     Program PWSCF v.6.7MaX starts on  1Sep2024 at 20:12:49 

     This program is part of the open-source Quantum ESPRESSO suite
     for quantum simulation of materials; please cite
         "P. Giannozzi et al., J. Phys.:Condens. Matter 21 395502 (2009);
         "P. Giannozzi et al., J. Phys.:Condens. Matter 29 465901 (2017);
          URL http://www.quantum-espresso.org", 
     in publications or presentations arising from this work. More details at
     http://www.quantum-espresso.org/quote

     Parallel version (MPI), running on     4 processors

     MPI processes distributed on     1 nodes
     R & G space division:  proc/nbgrp/npool/nimage =       4
     Reading input from carbon_nanotube_SCF3.in

     Current dimensions of program PWSCF are:
     Max number of different atomic species (ntypx) = 10
     Max number of k-points (npk) =  40000
     Max angular momentum in pseudopotentials (lmaxx) =  3
     file C.UPF: wavefunction(s)  3d renormalized

     IMPORTANT: XC functional enforced from input :
     Exchange-correlation= PBESOL
                           (   1   4  10   8   0   0   0)
     Any further DFT definition will be discarded
     Please, verify this is what you really want


     --------------------------------------------
     Parameters for DFT-D3 Dispersion Correction:
     --------------------------------------------
       Reference C6 values for interpolation: 

         atom   Coordination number   C6
         C          0.000            98.23
         C          0.987            86.49
         C          1.998            58.72
         C          2.999            51.56
         C          3.984            36.41

       Values used:

         atom   Coordination number  R0_AB[au]  C6      C8
         C          3.347            2.750     47.57   1375.77
         C          3.347            2.750     47.57   1375.75
         C          3.347            2.750     47.57   1375.79
         C          3.347            2.750     47.57   1375.73
         C          3.347            2.750     47.57   1375.76
         C          3.347            2.750     47.57   1375.78
         C          3.347            2.750     47.57   1375.75
         C          3.347            2.750     47.57   1375.81
         C          3.347            2.750     47.57   1375.74
         C          3.347            2.750     47.57   1375.78
         C          3.347            2.750     47.57   1375.76
         C          3.347            2.750     47.57   1375.78
         C          3.347            2.750     47.57   1375.78
         C          3.347            2.750     47.57   1375.76
         C          3.347            2.750     47.57   1375.76
         C          3.347            2.750     47.57   1375.79
         C          3.347            2.750     47.57   1375.76
         C          3.347            2.750     47.57   1375.78
         C          3.347            2.750     47.57   1375.80
         C          3.347            2.750     47.57   1375.75

         Molecular C6 ( Ry / a.u.^6 ) =     19027.47


     Subspace diagonalization in iterative solution of the eigenvalue problem:
     one sub-group per band group will be used
     scalapack distributed-memory algorithm (size of sub-group:  2*  2 procs)

     Message from routine setup:
     no reason to have ecutrho>4*ecutwfc

     Parallelization info
     --------------------
     sticks:   dense  smooth     PW     G-vecs:    dense   smooth      PW
     Min       20842   10233   3140               371411   127792   21663
     Max       20844   10239   3142               371412   127793   21664
     Sum       83373   40945  12565              1485647   511171   86655



     bravais-lattice index     =            6
     lattice parameter (alat)  =      56.6918  a.u.
     unit-cell volume          =   14937.8366 (a.u.)^3
     number of atoms/cell      =           20
     number of atomic types    =            1
     number of electrons       =        80.00
     number of Kohn-Sham states=           40
     kinetic-energy cutoff     =      40.0000  Ry
     charge density cutoff     =     326.0000  Ry
     scf convergence threshold =      1.0E-09
     mixing beta               =       0.6000
     number of iterations used =            8  plain     mixing
     Exchange-correlation= PBESOL
                           (   1   4  10   8   0   0   0)

     celldm(1)=  56.691784  celldm(2)=   0.000000  celldm(3)=   0.081984
     celldm(4)=   0.000000  celldm(5)=   0.000000  celldm(6)=   0.000000

     crystal axes: (cart. coord. in units of alat)
               a(1) = (   1.000000   0.000000   0.000000 )  
               a(2) = (   0.000000   1.000000   0.000000 )  
               a(3) = (   0.000000   0.000000   0.081984 )  

     reciprocal axes: (cart. coord. in units 2 pi/alat)
               b(1) = (  1.000000  0.000000  0.000000 )  
               b(2) = (  0.000000  1.000000  0.000000 )  
               b(3) = (  0.000000  0.000000 12.197552 )  


     PseudoPot. # 1 for C  read from file:
     /usr/share/espresso/pseudo/C.UPF
     MD5 check sum: 4781e8ce5ee01a432381f51d0ea25c53
     Pseudo is Norm-conserving, Zval =  4.0
     Generated by new atomic code, or converted to UPF format
     Using radial grid of  461 points,  2 beta functions with: 
                l(1) =   0
                l(2) =   1

     atomic species   valence    mass     pseudopotential
        C              4.00    12.01070     C ( 1.00)

      2 Sym. Ops. (no inversion) found


                                    s                        frac. trans.

      isym =  1     identity                                     

 cryst.   s( 1) = (     1          0          0      )
                  (     0          1          0      )
                  (     0          0          1      )

 cart.    s( 1) = (  1.0000000  0.0000000  0.0000000 )
                  (  0.0000000  1.0000000  0.0000000 )
                  (  0.0000000  0.0000000  1.0000000 )


      isym =  2     inv. 180 deg rotation - cart. axis [0,0,1]   

 cryst.   s( 2) = (     1          0          0      )
                  (     0          1          0      )
                  (     0          0         -1      )

 cart.    s( 2) = (  1.0000000  0.0000000  0.0000000 )
                  (  0.0000000  1.0000000  0.0000000 )
                  (  0.0000000  0.0000000 -1.0000000 )


     point group C_s (m)    
     there are  2 classes
     the character table:

       E     s    
A'     1.00  1.00
A''    1.00 -1.00

     the symmetry operations in each class and the name of the first element:

     E        1
          identity                                               
     s        2
          inv. 180 deg rotation - cart. axis [0,0,1]             

   Cartesian axes

     site n.     atom                  positions (alat units)
         1           C   tau(   1) = (   0.5349183   0.6077880   0.0409918  )
         2           C   tau(   2) = (   0.4082703   0.5665244   0.0409918  )
         3           C   tau(   3) = (   0.4083952   0.4333278   0.0409918  )
         4           C   tau(   4) = (   0.5351093   0.3922704   0.0409918  )
         5           C   tau(   5) = (   0.6133139   0.5000944   0.0409918  )
         6           C   tau(   6) = (   0.4879126   0.6126623   0.0409918  )
         7           C   tau(   7) = (   0.3891140   0.5233263   0.0409918  )
         8           C   tau(   8) = (   0.4435582   0.4017583   0.0409918  )
         9           C   tau(   9) = (   0.5760011   0.4159562   0.0409918  )
        10           C   tau(  10) = (   0.6034109   0.5463005   0.0409918  )
        11           C   tau(  11) = (   0.4648890   0.6077331   0.0000000  )
        12           C   tau(  12) = (   0.3866822   0.4999063   0.0000000  )
        13           C   tau(  13) = (   0.4650826   0.3922073   0.0000000  )
        14           C   tau(  14) = (   0.5917323   0.4334737   0.0000000  )
        15           C   tau(  15) = (   0.5916065   0.5666734   0.0000000  )
        16           C   tau(  16) = (   0.5564435   0.5982443   0.0000000  )
        17           C   tau(  17) = (   0.4239969   0.5840492   0.0000000  )
        18           C   tau(  18) = (   0.3965847   0.4536982   0.0000000  )
        19           C   tau(  19) = (   0.5120881   0.3873344   0.0000000  )
        20           C   tau(  20) = (   0.6108913   0.4766714   0.0000000  )

   Crystallographic axes

     site n.     atom                  positions (cryst. coord.)
         1           C   tau(   1) = (  0.5349183  0.6077880  0.5000000  )
         2           C   tau(   2) = (  0.4082703  0.5665244  0.5000000  )
         3           C   tau(   3) = (  0.4083952  0.4333278  0.5000000  )
         4           C   tau(   4) = (  0.5351093  0.3922704  0.5000000  )
         5           C   tau(   5) = (  0.6133139  0.5000944  0.5000000  )
         6           C   tau(   6) = (  0.4879126  0.6126623  0.5000000  )
         7           C   tau(   7) = (  0.3891140  0.5233263  0.5000000  )
         8           C   tau(   8) = (  0.4435582  0.4017583  0.5000000  )
         9           C   tau(   9) = (  0.5760011  0.4159562  0.5000000  )
        10           C   tau(  10) = (  0.6034109  0.5463005  0.5000000  )
        11           C   tau(  11) = (  0.4648890  0.6077331  0.0000000  )
        12           C   tau(  12) = (  0.3866822  0.4999063  0.0000000  )
        13           C   tau(  13) = (  0.4650826  0.3922073  0.0000000  )
        14           C   tau(  14) = (  0.5917323  0.4334737  0.0000000  )
        15           C   tau(  15) = (  0.5916065  0.5666734  0.0000000  )
        16           C   tau(  16) = (  0.5564435  0.5982443  0.0000000  )
        17           C   tau(  17) = (  0.4239969  0.5840492  0.0000000  )
        18           C   tau(  18) = (  0.3965847  0.4536982  0.0000000  )
        19           C   tau(  19) = (  0.5120881  0.3873344  0.0000000  )
        20           C   tau(  20) = (  0.6108913  0.4766714  0.0000000  )

     number of k points=    24
                       cart. coord. in units 2pi/alat
        k(    1) = (   0.0000000   0.0000000   0.0000000), wk =   0.0500000
        k(    2) = (   0.0000000   0.0000000   1.2197552), wk =   0.1000000
        k(    3) = (   0.0000000   0.0000000   2.4395103), wk =   0.1000000
        k(    4) = (   0.0000000   0.0000000   3.6592655), wk =   0.1000000
        k(    5) = (   0.0000000   0.0000000   4.8790206), wk =   0.1000000
        k(    6) = (   0.0000000   0.0000000  -6.0987758), wk =   0.0500000
        k(    7) = (   0.0000000  -0.5000000   0.0000000), wk =   0.0500000
        k(    8) = (   0.0000000  -0.5000000   1.2197552), wk =   0.1000000
        k(    9) = (   0.0000000  -0.5000000   2.4395103), wk =   0.1000000
        k(   10) = (   0.0000000  -0.5000000   3.6592655), wk =   0.1000000
        k(   11) = (   0.0000000  -0.5000000   4.8790206), wk =   0.1000000
        k(   12) = (   0.0000000  -0.5000000  -6.0987758), wk =   0.0500000
        k(   13) = (  -0.5000000  -0.5000000   0.0000000), wk =   0.0500000
        k(   14) = (  -0.5000000  -0.5000000   1.2197552), wk =   0.1000000
        k(   15) = (  -0.5000000  -0.5000000   2.4395103), wk =   0.1000000
        k(   16) = (  -0.5000000  -0.5000000   3.6592655), wk =   0.1000000
        k(   17) = (  -0.5000000  -0.5000000   4.8790206), wk =   0.1000000
        k(   18) = (  -0.5000000  -0.5000000  -6.0987758), wk =   0.0500000
        k(   19) = (  -0.5000000   0.0000000   0.0000000), wk =   0.0500000
        k(   20) = (  -0.5000000   0.0000000  -1.2197552), wk =   0.1000000
        k(   21) = (  -0.5000000   0.0000000  -2.4395103), wk =   0.1000000
        k(   22) = (  -0.5000000   0.0000000  -3.6592655), wk =   0.1000000
        k(   23) = (  -0.5000000   0.0000000  -4.8790206), wk =   0.1000000
        k(   24) = (  -0.5000000   0.0000000   6.0987758), wk =   0.0500000

                       cryst. coord.
        k(    1) = (   0.0000000   0.0000000   0.0000000), wk =   0.0500000
        k(    2) = (   0.0000000   0.0000000   0.1000000), wk =   0.1000000
        k(    3) = (   0.0000000   0.0000000   0.2000000), wk =   0.1000000
        k(    4) = (   0.0000000   0.0000000   0.3000000), wk =   0.1000000
        k(    5) = (   0.0000000   0.0000000   0.4000000), wk =   0.1000000
        k(    6) = (   0.0000000   0.0000000  -0.5000000), wk =   0.0500000
        k(    7) = (   0.0000000  -0.5000000   0.0000000), wk =   0.0500000
        k(    8) = (   0.0000000  -0.5000000   0.1000000), wk =   0.1000000
        k(    9) = (   0.0000000  -0.5000000   0.2000000), wk =   0.1000000
        k(   10) = (   0.0000000  -0.5000000   0.3000000), wk =   0.1000000
        k(   11) = (   0.0000000  -0.5000000   0.4000000), wk =   0.1000000
        k(   12) = (   0.0000000  -0.5000000  -0.5000000), wk =   0.0500000
        k(   13) = (  -0.5000000  -0.5000000   0.0000000), wk =   0.0500000
        k(   14) = (  -0.5000000  -0.5000000   0.1000000), wk =   0.1000000
        k(   15) = (  -0.5000000  -0.5000000   0.2000000), wk =   0.1000000
        k(   16) = (  -0.5000000  -0.5000000   0.3000000), wk =   0.1000000
        k(   17) = (  -0.5000000  -0.5000000   0.4000000), wk =   0.1000000
        k(   18) = (  -0.5000000  -0.5000000  -0.5000000), wk =   0.0500000
        k(   19) = (  -0.5000000   0.0000000   0.0000000), wk =   0.0500000
        k(   20) = (  -0.5000000   0.0000000  -0.1000000), wk =   0.1000000
        k(   21) = (  -0.5000000   0.0000000  -0.2000000), wk =   0.1000000
        k(   22) = (  -0.5000000   0.0000000  -0.3000000), wk =   0.1000000
        k(   23) = (  -0.5000000   0.0000000  -0.4000000), wk =   0.1000000
        k(   24) = (  -0.5000000   0.0000000   0.5000000), wk =   0.0500000

     Dense  grid:  1485647 G-vectors     FFT dimensions: ( 360, 360,  27)

     Smooth grid:   511171 G-vectors     FFT dimensions: ( 240, 240,  20)

     Dynamical RAM for                 wfc:       9.74 MB

     Dynamical RAM for     wfc (w. buffer):     243.44 MB

     Dynamical RAM for           str. fact:       5.67 MB

     Dynamical RAM for           local pot:       0.00 MB

     Dynamical RAM for          nlocal pot:      19.48 MB

     Dynamical RAM for                qrad:       0.12 MB

     Dynamical RAM for          rho,v,vnew:      37.77 MB

     Dynamical RAM for               rhoin:      12.59 MB

     Dynamical RAM for            rho*nmix:      90.68 MB

     Dynamical RAM for           G-vectors:      22.23 MB

     Dynamical RAM for          h,s,v(r/c):       0.07 MB

     Dynamical RAM for          <psi|beta>:       0.05 MB

     Dynamical RAM for                 psi:      19.48 MB

     Dynamical RAM for                hpsi:      19.48 MB

     Dynamical RAM for      wfcinit/wfcrot:      19.51 MB

     Estimated static dynamical RAM per process >     477.91 MB

     Estimated max dynamical RAM per process >     516.98 MB

     Estimated total dynamical RAM >       2.02 GB

     Atomic positions and unit cell read from directory:
     ./tmp/carbon_nanotube.save/


     The initial density is read from file :
     ./tmp/carbon_nanotube.save/charge-density

     Starting wfcs from file

     total cpu time spent up to now is        7.3 secs

     Self-consistent Calculation

     iteration #  1     ecut=    40.00 Ry     beta= 0.60
     Davidson diagonalization with overlap
     ethr =  1.00E-05,  avg # of iterations =  1.0

     Threshold (ethr) on eigenvalues was too large:
     Diagonalizing with lowered threshold

     Davidson diagonalization with overlap
     ethr =  3.56E-13,  avg # of iterations =  7.9

     total cpu time spent up to now is      361.1 secs

     total energy              =    -228.41279463 Ry
     estimated scf accuracy    <          3.3E-09 Ry

     iteration #  2     ecut=    40.00 Ry     beta= 0.60
     Davidson diagonalization with overlap
     ethr =  4.15E-12,  avg # of iterations =  7.2

     total cpu time spent up to now is      583.2 secs

     total energy              =    -228.41279463 Ry
     estimated scf accuracy    <          9.2E-09 Ry

     iteration #  3     ecut=    40.00 Ry     beta= 0.60
     Davidson diagonalization with overlap
     ethr =  4.15E-12,  avg # of iterations =  5.4

     total cpu time spent up to now is      758.3 secs

     End of self-consistent calculation

          k = 0.0000 0.0000 0.0000 ( 63941 PWs)   bands (ev):

   -23.2496 -22.9782 -22.9779 -22.1829 -22.1828 -20.9148 -20.9148 -19.2495
   -19.2494 -17.6404 -16.6824 -14.8110 -14.8107 -12.4168 -12.4165 -11.5420
   -11.2346 -11.2341 -10.7031 -10.7029 -10.2335  -9.9953  -9.9946  -9.3012
    -9.3007  -9.1840  -9.1837  -8.4448  -8.4444  -8.2681  -8.2673  -7.5384
    -7.5377  -7.2074  -7.2070  -6.7207  -6.6822  -6.6764  -6.6762  -5.4570

     occupation numbers 
     1.0000   1.0000   1.0000   1.0000   1.0000   1.0000   1.0000   1.0000
     1.0000   1.0000   1.0000   1.0000   1.0000   1.0000   1.0000   1.0000
     1.0000   1.0000   1.0000   1.0000   1.0000   1.0000   1.0000   1.0000
     1.0000   1.0000   1.0000   1.0000   1.0000   1.0000   1.0000   1.0000
     1.0000   1.0000   1.0000   1.0000   1.0000   1.0000   1.0000   1.0000

          k = 0.0000 0.0000 1.2198 ( 63989 PWs)   bands (ev):

   -23.0714 -22.8008 -22.8005 -22.0079 -22.0077 -20.7439 -20.7438 -19.0862
   -19.0861 -17.4916 -16.5319 -14.6909 -14.6904 -12.3619 -12.3615 -11.3359
   -11.0342 -11.0341 -10.9733 -10.7207 -10.7205 -10.6194 -10.6192  -9.9840
    -9.9829  -9.2752  -9.2751  -8.7747  -8.7743  -8.2582  -8.2579  -8.1041
    -8.1037  -7.5176  -7.5172  -7.3753  -7.0366  -6.4881  -6.4877  -5.2538

     occupation numbers 
     1.0000   1.0000   1.0000   1.0000   1.0000   1.0000   1.0000   1.0000
     1.0000   1.0000   1.0000   1.0000   1.0000   1.0000   1.0000   1.0000
     1.0000   1.0000   1.0000   1.0000   1.0000   1.0000   1.0000   1.0000
     1.0000   1.0000   1.0000   1.0000   1.0000   1.0000   1.0000   1.0000
     1.0000   1.0000   1.0000   1.0000   1.0000   1.0000   1.0000   1.0000

          k = 0.0000 0.0000 2.4395 ( 63941 PWs)   bands (ev):

   -22.5391 -22.2708 -22.2705 -21.4848 -21.4847 -20.2338 -20.2337 -18.6005
   -18.6003 -17.0454 -16.1188 -14.4086 -14.4082 -12.6513 -12.5526 -12.5523
   -12.3264 -12.3262 -11.2162 -11.2159 -11.1652 -11.1650 -10.7318 -10.4992
   -10.4986  -9.8263  -9.8259  -9.6354  -9.6351  -8.9070  -8.7731  -8.7727
    -8.0794  -8.0793  -8.0007  -7.7113  -7.7111  -5.9511  -5.9507  -4.6468

     occupation numbers 
     1.0000   1.0000   1.0000   1.0000   1.0000   1.0000   1.0000   1.0000
     1.0000   1.0000   1.0000   1.0000   1.0000   1.0000   1.0000   1.0000
     1.0000   1.0000   1.0000   1.0000   1.0000   1.0000   1.0000   1.0000
     1.0000   1.0000   1.0000   1.0000   1.0000   1.0000   1.0000   1.0000
     1.0000   1.0000   1.0000   1.0000   1.0000   1.0000   1.0000   1.0000

          k = 0.0000 0.0000 3.6593 ( 63665 PWs)   bands (ev):

   -21.6597 -21.3954 -21.3951 -20.6214 -20.6213 -19.3950 -19.3949 -17.8145
   -17.8143 -16.3045 -15.8626 -14.9648 -14.9645 -14.1668 -14.1285 -14.1284
   -13.1219 -13.1217 -12.9942 -12.9940 -11.6535 -11.6532 -11.2097 -11.2095
   -10.6914  -9.9854  -9.7351  -9.7345  -9.6063  -9.6058  -9.1073  -8.7395
    -8.7394  -8.1472  -8.1468  -6.8675  -6.8670  -5.2139  -5.2136  -3.6536

     occupation numbers 
     1.0000   1.0000   1.0000   1.0000   1.0000   1.0000   1.0000   1.0000
     1.0000   1.0000   1.0000   1.0000   1.0000   1.0000   1.0000   1.0000
     1.0000   1.0000   1.0000   1.0000   1.0000   1.0000   1.0000   1.0000
     1.0000   1.0000   1.0000   1.0000   1.0000   1.0000   1.0000   1.0000
     1.0000   1.0000   1.0000   1.0000   1.0000   1.0000   1.0000   1.0000

          k = 0.0000 0.0000 4.8790 ( 63698 PWs)   bands (ev):

   -20.4487 -20.1899 -20.1896 -19.4374 -19.4373 -18.2729 -18.2728 -17.2110
   -17.1918 -17.1917 -16.2844 -16.2843 -16.0059 -16.0056 -15.2755 -14.9025
   -14.9019 -13.7530 -13.4957 -13.4956 -12.4283 -12.4085 -12.4083 -11.0691
   -10.7337 -10.7334 -10.2509 -10.2507  -9.8633  -9.8631  -8.1747  -7.8712
    -7.8710  -7.0586  -7.0583  -5.9866  -5.9865  -5.0933  -5.0932  -4.8002

     occupation numbers 
     1.0000   1.0000   1.0000   1.0000   1.0000   1.0000   1.0000   1.0000
     1.0000   1.0000   1.0000   1.0000   1.0000   1.0000   1.0000   1.0000
     1.0000   1.0000   1.0000   1.0000   1.0000   1.0000   1.0000   1.0000
     1.0000   1.0000   1.0000   1.0000   1.0000   1.0000   1.0000   1.0000
     1.0000   1.0000   1.0000   1.0000   1.0000   1.0000   1.0000   1.0000

          k = 0.0000 0.0000-6.0988 ( 63698 PWs)   bands (ev):

   -18.9363 -18.9361 -18.6917 -18.6915 -18.6913 -18.6912 -18.0340 -18.0338
   -18.0338 -18.0336 -16.5398 -16.5398 -16.5397 -16.5397 -15.1424 -15.1424
   -15.1423 -15.1422 -13.9732 -13.9730 -12.5168 -12.5167 -11.3697 -11.3696
   -11.3695 -11.3694 -10.2353 -10.2352 -10.2350 -10.2349  -6.5473  -6.5472
    -6.3598  -6.3597  -6.3592  -6.3592  -5.9841  -5.9840  -5.9839  -5.9838

     occupation numbers 
     1.0000   1.0000   1.0000   1.0000   1.0000   1.0000   1.0000   1.0000
     1.0000   1.0000   1.0000   1.0000   1.0000   1.0000   1.0000   1.0000
     1.0000   1.0000   1.0000   1.0000   1.0000   1.0000   1.0000   1.0000
     1.0000   1.0000   1.0000   1.0000   1.0000   1.0000   1.0000   1.0000
     1.0000   1.0000   1.0000   1.0000   1.0000   1.0000   1.0000   1.0000

          k = 0.0000-0.5000 0.0000 ( 64074 PWs)   bands (ev):

   -23.2496 -22.9782 -22.9779 -22.1830 -22.1829 -20.9149 -20.9148 -19.2497
   -19.2496 -17.6405 -16.6827 -14.8116 -14.8112 -12.4172 -12.4170 -11.5422
   -11.2352 -11.2348 -10.7039 -10.7037 -10.2345  -9.9956  -9.9951  -9.3020
    -9.3014  -9.1846  -9.1843  -8.4452  -8.4449  -8.2685  -8.2679  -7.5391
    -7.5389  -7.2084  -7.2076  -6.7215  -6.6827  -6.6774  -6.6768  -5.4571

     occupation numbers 
     1.0000   1.0000   1.0000   1.0000   1.0000   1.0000   1.0000   1.0000
     1.0000   1.0000   1.0000   1.0000   1.0000   1.0000   1.0000   1.0000
     1.0000   1.0000   1.0000   1.0000   1.0000   1.0000   1.0000   1.0000
     1.0000   1.0000   1.0000   1.0000   1.0000   1.0000   1.0000   1.0000
     1.0000   1.0000   1.0000   1.0000   1.0000   1.0000   1.0000   1.0000

          k = 0.0000-0.5000 1.2198 ( 63952 PWs)   bands (ev):

   -23.0714 -22.8008 -22.8005 -22.0078 -22.0077 -20.7439 -20.7438 -19.0862
   -19.0861 -17.4915 -16.5321 -14.6907 -14.6906 -12.3616 -12.3613 -11.3358
   -11.0341 -11.0338 -10.9730 -10.7205 -10.7200 -10.6193 -10.6190  -9.9837
    -9.9831  -9.2750  -9.2749  -8.7745  -8.7739  -8.2582  -8.2576  -8.1038
    -8.1030  -7.5173  -7.5170  -7.3752  -7.0360  -6.4878  -6.4876  -5.2535

     occupation numbers 
     1.0000   1.0000   1.0000   1.0000   1.0000   1.0000   1.0000   1.0000
     1.0000   1.0000   1.0000   1.0000   1.0000   1.0000   1.0000   1.0000
     1.0000   1.0000   1.0000   1.0000   1.0000   1.0000   1.0000   1.0000
     1.0000   1.0000   1.0000   1.0000   1.0000   1.0000   1.0000   1.0000
     1.0000   1.0000   1.0000   1.0000   1.0000   1.0000   1.0000   1.0000

          k = 0.0000-0.5000 2.4395 ( 63874 PWs)   bands (ev):

   -22.5391 -22.2708 -22.2705 -21.4848 -21.4847 -20.2338 -20.2337 -18.6004
   -18.6002 -17.0453 -16.1184 -14.4084 -14.4083 -12.6514 -12.5524 -12.5521
   -12.3261 -12.3255 -11.2158 -11.2155 -11.1651 -11.1649 -10.7315 -10.4990
   -10.4986  -9.8260  -9.8254  -9.6350  -9.6349  -8.9067  -8.7725  -8.7724
    -8.0790  -8.0787  -8.0001  -7.7111  -7.7108  -5.9506  -5.9504  -4.6463

     occupation numbers 
     1.0000   1.0000   1.0000   1.0000   1.0000   1.0000   1.0000   1.0000
     1.0000   1.0000   1.0000   1.0000   1.0000   1.0000   1.0000   1.0000
     1.0000   1.0000   1.0000   1.0000   1.0000   1.0000   1.0000   1.0000
     1.0000   1.0000   1.0000   1.0000   1.0000   1.0000   1.0000   1.0000
     1.0000   1.0000   1.0000   1.0000   1.0000   1.0000   1.0000   1.0000

          k = 0.0000-0.5000 3.6593 ( 63630 PWs)   bands (ev):

   -21.6597 -21.3954 -21.3951 -20.6214 -20.6213 -19.3950 -19.3949 -17.8144
   -17.8143 -16.3044 -15.8625 -14.9647 -14.9644 -14.1666 -14.1285 -14.1282
   -13.1217 -13.1216 -12.9940 -12.9940 -11.6534 -11.6531 -11.2096 -11.2092
   -10.6914  -9.9852  -9.7348  -9.7346  -9.6062  -9.6058  -9.1070  -8.7395
    -8.7391  -8.1470  -8.1466  -6.8672  -6.8668  -5.2138  -5.2136  -3.6535

     occupation numbers 
     1.0000   1.0000   1.0000   1.0000   1.0000   1.0000   1.0000   1.0000
     1.0000   1.0000   1.0000   1.0000   1.0000   1.0000   1.0000   1.0000
     1.0000   1.0000   1.0000   1.0000   1.0000   1.0000   1.0000   1.0000
     1.0000   1.0000   1.0000   1.0000   1.0000   1.0000   1.0000   1.0000
     1.0000   1.0000   1.0000   1.0000   1.0000   1.0000   1.0000   1.0000

          k = 0.0000-0.5000 4.8790 ( 63680 PWs)   bands (ev):

   -20.4487 -20.1899 -20.1896 -19.4374 -19.4373 -18.2729 -18.2728 -17.2108
   -17.1918 -17.1916 -16.2843 -16.2842 -16.0056 -16.0055 -15.2756 -14.9019
   -14.9016 -13.7529 -13.4956 -13.4954 -12.4283 -12.4085 -12.4082 -11.0693
   -10.7335 -10.7330 -10.2508 -10.2507  -9.8636  -9.8632  -8.1749  -7.8710
    -7.8710  -7.0587  -7.0584  -5.9866  -5.9864  -5.0935  -5.0931  -4.8002

     occupation numbers 
     1.0000   1.0000   1.0000   1.0000   1.0000   1.0000   1.0000   1.0000
     1.0000   1.0000   1.0000   1.0000   1.0000   1.0000   1.0000   1.0000
     1.0000   1.0000   1.0000   1.0000   1.0000   1.0000   1.0000   1.0000
     1.0000   1.0000   1.0000   1.0000   1.0000   1.0000   1.0000   1.0000
     1.0000   1.0000   1.0000   1.0000   1.0000   1.0000   1.0000   1.0000

          k = 0.0000-0.5000-6.0988 ( 63732 PWs)   bands (ev):

   -18.9363 -18.9362 -18.6917 -18.6915 -18.6914 -18.6912 -18.0340 -18.0339
   -18.0338 -18.0337 -16.5399 -16.5398 -16.5398 -16.5398 -15.1426 -15.1426
   -15.1424 -15.1422 -13.9734 -13.9733 -12.5172 -12.5171 -11.3697 -11.3696
   -11.3696 -11.3695 -10.2354 -10.2353 -10.2352 -10.2351  -6.5474  -6.5473
    -6.3597  -6.3596  -6.3594  -6.3594  -5.9842  -5.9840  -5.9840  -5.9838

     occupation numbers 
     1.0000   1.0000   1.0000   1.0000   1.0000   1.0000   1.0000   1.0000
     1.0000   1.0000   1.0000   1.0000   1.0000   1.0000   1.0000   1.0000
     1.0000   1.0000   1.0000   1.0000   1.0000   1.0000   1.0000   1.0000
     1.0000   1.0000   1.0000   1.0000   1.0000   1.0000   1.0000   1.0000
     1.0000   1.0000   1.0000   1.0000   1.0000   1.0000   1.0000   1.0000

          k =-0.5000-0.5000 0.0000 ( 64064 PWs)   bands (ev):

   -23.2496 -22.9782 -22.9779 -22.1829 -22.1829 -20.9149 -20.9148 -19.2497
   -19.2495 -17.6405 -16.6827 -14.8114 -14.8113 -12.4170 -12.4169 -11.5425
   -11.2350 -11.2344 -10.7036 -10.7034 -10.2350  -9.9954  -9.9950  -9.3022
    -9.3017  -9.1850  -9.1846  -8.4451  -8.4447  -8.2681  -8.2680  -7.5387
    -7.5386  -7.2082  -7.2072  -6.7208  -6.6824  -6.6771  -6.6766  -5.4573

     occupation numbers 
     1.0000   1.0000   1.0000   1.0000   1.0000   1.0000   1.0000   1.0000
     1.0000   1.0000   1.0000   1.0000   1.0000   1.0000   1.0000   1.0000
     1.0000   1.0000   1.0000   1.0000   1.0000   1.0000   1.0000   1.0000
     1.0000   1.0000   1.0000   1.0000   1.0000   1.0000   1.0000   1.0000
     1.0000   1.0000   1.0000   1.0000   1.0000   1.0000   1.0000   1.0000

          k =-0.5000-0.5000 1.2198 ( 64004 PWs)   bands (ev):

   -23.0714 -22.8008 -22.8005 -22.0079 -22.0078 -20.7439 -20.7439 -19.0863
   -19.0862 -17.4916 -16.5322 -14.6910 -14.6908 -12.3620 -12.3617 -11.3361
   -11.0344 -11.0342 -10.9735 -10.7203 -10.7200 -10.6197 -10.6192  -9.9834
    -9.9828  -9.2753  -9.2750  -8.7743  -8.7739  -8.2582  -8.2580  -8.1038
    -8.1035  -7.5173  -7.5167  -7.3748  -7.0364  -6.4883  -6.4882  -5.2539

     occupation numbers 
     1.0000   1.0000   1.0000   1.0000   1.0000   1.0000   1.0000   1.0000
     1.0000   1.0000   1.0000   1.0000   1.0000   1.0000   1.0000   1.0000
     1.0000   1.0000   1.0000   1.0000   1.0000   1.0000   1.0000   1.0000
     1.0000   1.0000   1.0000   1.0000   1.0000   1.0000   1.0000   1.0000
     1.0000   1.0000   1.0000   1.0000   1.0000   1.0000   1.0000   1.0000

          k =-0.5000-0.5000 2.4395 ( 63868 PWs)   bands (ev):

   -22.5391 -22.2708 -22.2705 -21.4848 -21.4847 -20.2338 -20.2337 -18.6004
   -18.6003 -17.0453 -16.1185 -14.4086 -14.4083 -12.6513 -12.5522 -12.5519
   -12.3261 -12.3257 -11.2159 -11.2154 -11.1650 -11.1649 -10.7315 -10.4989
   -10.4986  -9.8257  -9.8254  -9.6350  -9.6347  -8.9065  -8.7725  -8.7723
    -8.0789  -8.0786  -8.0002  -7.7111  -7.7107  -5.9506  -5.9505  -4.6467

     occupation numbers 
     1.0000   1.0000   1.0000   1.0000   1.0000   1.0000   1.0000   1.0000
     1.0000   1.0000   1.0000   1.0000   1.0000   1.0000   1.0000   1.0000
     1.0000   1.0000   1.0000   1.0000   1.0000   1.0000   1.0000   1.0000
     1.0000   1.0000   1.0000   1.0000   1.0000   1.0000   1.0000   1.0000
     1.0000   1.0000   1.0000   1.0000   1.0000   1.0000   1.0000   1.0000

          k =-0.5000-0.5000 3.6593 ( 63660 PWs)   bands (ev):

   -21.6597 -21.3954 -21.3951 -20.6214 -20.6213 -19.3951 -19.3949 -17.8144
   -17.8143 -16.3045 -15.8626 -14.9645 -14.9643 -14.1668 -14.1284 -14.1282
   -13.1217 -13.1216 -12.9943 -12.9941 -11.6534 -11.6530 -11.2098 -11.2094
   -10.6911  -9.9857  -9.7355  -9.7353  -9.6063  -9.6059  -9.1073  -8.7395
    -8.7393  -8.1471  -8.1468  -6.8675  -6.8673  -5.2140  -5.2136  -3.6539

     occupation numbers 
     1.0000   1.0000   1.0000   1.0000   1.0000   1.0000   1.0000   1.0000
     1.0000   1.0000   1.0000   1.0000   1.0000   1.0000   1.0000   1.0000
     1.0000   1.0000   1.0000   1.0000   1.0000   1.0000   1.0000   1.0000
     1.0000   1.0000   1.0000   1.0000   1.0000   1.0000   1.0000   1.0000
     1.0000   1.0000   1.0000   1.0000   1.0000   1.0000   1.0000   1.0000

          k =-0.5000-0.5000 4.8790 ( 63620 PWs)   bands (ev):

   -20.4487 -20.1899 -20.1896 -19.4374 -19.4373 -18.2729 -18.2728 -17.2106
   -17.1917 -17.1916 -16.2842 -16.2840 -16.0056 -16.0053 -15.2754 -14.9017
   -14.9015 -13.7524 -13.4955 -13.4950 -12.4279 -12.4083 -12.4081 -11.0688
   -10.7329 -10.7328 -10.2504 -10.2502  -9.8631  -9.8626  -8.1750  -7.8711
    -7.8707  -7.0585  -7.0584  -5.9862  -5.9859  -5.0929  -5.0927  -4.7999

     occupation numbers 
     1.0000   1.0000   1.0000   1.0000   1.0000   1.0000   1.0000   1.0000
     1.0000   1.0000   1.0000   1.0000   1.0000   1.0000   1.0000   1.0000
     1.0000   1.0000   1.0000   1.0000   1.0000   1.0000   1.0000   1.0000
     1.0000   1.0000   1.0000   1.0000   1.0000   1.0000   1.0000   1.0000
     1.0000   1.0000   1.0000   1.0000   1.0000   1.0000   1.0000   1.0000

          k =-0.5000-0.5000-6.0988 ( 63856 PWs)   bands (ev):

   -18.9364 -18.9362 -18.6917 -18.6916 -18.6915 -18.6914 -18.0341 -18.0339
   -18.0339 -18.0338 -16.5402 -16.5402 -16.5400 -16.5399 -15.1427 -15.1427
   -15.1426 -15.1425 -13.9736 -13.9735 -12.5178 -12.5177 -11.3704 -11.3703
   -11.3703 -11.3702 -10.2364 -10.2363 -10.2358 -10.2357  -6.5480  -6.5479
    -6.3602  -6.3602  -6.3599  -6.3598  -5.9849  -5.9847  -5.9846  -5.9846

     occupation numbers 
     1.0000   1.0000   1.0000   1.0000   1.0000   1.0000   1.0000   1.0000
     1.0000   1.0000   1.0000   1.0000   1.0000   1.0000   1.0000   1.0000
     1.0000   1.0000   1.0000   1.0000   1.0000   1.0000   1.0000   1.0000
     1.0000   1.0000   1.0000   1.0000   1.0000   1.0000   1.0000   1.0000
     1.0000   1.0000   1.0000   1.0000   1.0000   1.0000   1.0000   1.0000

          k =-0.5000 0.0000 0.0000 ( 64074 PWs)   bands (ev):

   -23.2496 -22.9782 -22.9779 -22.1829 -22.1829 -20.9149 -20.9148 -19.2497
   -19.2496 -17.6405 -16.6826 -14.8118 -14.8115 -12.4172 -12.4166 -11.5425
   -11.2349 -11.2349 -10.7037 -10.7033 -10.2349  -9.9953  -9.9952  -9.3017
    -9.3013  -9.1846  -9.1842  -8.4454  -8.4446  -8.2688  -8.2678  -7.5393
    -7.5386  -7.2088  -7.2080  -6.7206  -6.6826  -6.6772  -6.6768  -5.4572

     occupation numbers 
     1.0000   1.0000   1.0000   1.0000   1.0000   1.0000   1.0000   1.0000
     1.0000   1.0000   1.0000   1.0000   1.0000   1.0000   1.0000   1.0000
     1.0000   1.0000   1.0000   1.0000   1.0000   1.0000   1.0000   1.0000
     1.0000   1.0000   1.0000   1.0000   1.0000   1.0000   1.0000   1.0000
     1.0000   1.0000   1.0000   1.0000   1.0000   1.0000   1.0000   1.0000

          k =-0.5000 0.0000-1.2198 ( 63952 PWs)   bands (ev):

   -23.0714 -22.8008 -22.8005 -22.0078 -22.0078 -20.7439 -20.7438 -19.0862
   -19.0861 -17.4915 -16.5321 -14.6908 -14.6906 -12.3617 -12.3613 -11.3356
   -11.0342 -11.0337 -10.9732 -10.7203 -10.7200 -10.6193 -10.6191  -9.9833
    -9.9827  -9.2751  -9.2749  -8.7747  -8.7740  -8.2580  -8.2575  -8.1038
    -8.1033  -7.5174  -7.5168  -7.3753  -7.0360  -6.4882  -6.4878  -5.2535

     occupation numbers 
     1.0000   1.0000   1.0000   1.0000   1.0000   1.0000   1.0000   1.0000
     1.0000   1.0000   1.0000   1.0000   1.0000   1.0000   1.0000   1.0000
     1.0000   1.0000   1.0000   1.0000   1.0000   1.0000   1.0000   1.0000
     1.0000   1.0000   1.0000   1.0000   1.0000   1.0000   1.0000   1.0000
     1.0000   1.0000   1.0000   1.0000   1.0000   1.0000   1.0000   1.0000

          k =-0.5000 0.0000-2.4395 ( 63874 PWs)   bands (ev):

   -22.5391 -22.2708 -22.2705 -21.4848 -21.4847 -20.2337 -20.2337 -18.6004
   -18.6003 -17.0453 -16.1184 -14.4084 -14.4082 -12.6511 -12.5523 -12.5521
   -12.3260 -12.3260 -11.2159 -11.2154 -11.1653 -11.1649 -10.7313 -10.4990
   -10.4984  -9.8258  -9.8257  -9.6351  -9.6351  -8.9065  -8.7724  -8.7722
    -8.0789  -8.0789  -8.0004  -7.7110  -7.7107  -5.9508  -5.9503  -4.6466

     occupation numbers 
     1.0000   1.0000   1.0000   1.0000   1.0000   1.0000   1.0000   1.0000
     1.0000   1.0000   1.0000   1.0000   1.0000   1.0000   1.0000   1.0000
     1.0000   1.0000   1.0000   1.0000   1.0000   1.0000   1.0000   1.0000
     1.0000   1.0000   1.0000   1.0000   1.0000   1.0000   1.0000   1.0000
     1.0000   1.0000   1.0000   1.0000   1.0000   1.0000   1.0000   1.0000

          k =-0.5000 0.0000-3.6593 ( 63630 PWs)   bands (ev):

   -21.6597 -21.3954 -21.3951 -20.6213 -20.6213 -19.3950 -19.3949 -17.8144
   -17.8142 -16.3045 -15.8624 -14.9646 -14.9643 -14.1666 -14.1285 -14.1284
   -13.1219 -13.1214 -12.9944 -12.9941 -11.6534 -11.6531 -11.2093 -11.2092
   -10.6912  -9.9852  -9.7349  -9.7347  -9.6063  -9.6059  -9.1070  -8.7394
    -8.7391  -8.1469  -8.1467  -6.8674  -6.8671  -5.2137  -5.2133  -3.6533

     occupation numbers 
     1.0000   1.0000   1.0000   1.0000   1.0000   1.0000   1.0000   1.0000
     1.0000   1.0000   1.0000   1.0000   1.0000   1.0000   1.0000   1.0000
     1.0000   1.0000   1.0000   1.0000   1.0000   1.0000   1.0000   1.0000
     1.0000   1.0000   1.0000   1.0000   1.0000   1.0000   1.0000   1.0000
     1.0000   1.0000   1.0000   1.0000   1.0000   1.0000   1.0000   1.0000

          k =-0.5000 0.0000-4.8790 ( 63680 PWs)   bands (ev):

   -20.4487 -20.1899 -20.1896 -19.4374 -19.4373 -18.2728 -18.2728 -17.2108
   -17.1918 -17.1916 -16.2842 -16.2841 -16.0057 -16.0056 -15.2754 -14.9020
   -14.9018 -13.7530 -13.4955 -13.4954 -12.4281 -12.4086 -12.4081 -11.0692
   -10.7334 -10.7330 -10.2509 -10.2507  -9.8636  -9.8631  -8.1750  -7.8714
    -7.8712  -7.0585  -7.0585  -5.9867  -5.9865  -5.0932  -5.0929  -4.8004

     occupation numbers 
     1.0000   1.0000   1.0000   1.0000   1.0000   1.0000   1.0000   1.0000
     1.0000   1.0000   1.0000   1.0000   1.0000   1.0000   1.0000   1.0000
     1.0000   1.0000   1.0000   1.0000   1.0000   1.0000   1.0000   1.0000
     1.0000   1.0000   1.0000   1.0000   1.0000   1.0000   1.0000   1.0000
     1.0000   1.0000   1.0000   1.0000   1.0000   1.0000   1.0000   1.0000

          k =-0.5000 0.0000 6.0988 ( 63732 PWs)   bands (ev):

   -18.9363 -18.9361 -18.6917 -18.6915 -18.6914 -18.6913 -18.0341 -18.0339
   -18.0338 -18.0337 -16.5399 -16.5399 -16.5398 -16.5398 -15.1426 -15.1425
   -15.1424 -15.1422 -13.9735 -13.9734 -12.5170 -12.5168 -11.3697 -11.3697
   -11.3694 -11.3693 -10.2355 -10.2354 -10.2350 -10.2349  -6.5473  -6.5472
    -6.3595  -6.3595  -6.3593  -6.3592  -5.9843  -5.9843  -5.9841  -5.9840

     occupation numbers 
     1.0000   1.0000   1.0000   1.0000   1.0000   1.0000   1.0000   1.0000
     1.0000   1.0000   1.0000   1.0000   1.0000   1.0000   1.0000   1.0000
     1.0000   1.0000   1.0000   1.0000   1.0000   1.0000   1.0000   1.0000
     1.0000   1.0000   1.0000   1.0000   1.0000   1.0000   1.0000   1.0000
     1.0000   1.0000   1.0000   1.0000   1.0000   1.0000   1.0000   1.0000

     highest occupied level (ev):    -3.6533

!    total energy              =    -228.41279463 Ry
     estimated scf accuracy    <          1.9E-10 Ry

     The total energy is the sum of the following terms:
     one-electron contribution =   -4540.08894383 Ry
     hartree contribution      =    2278.12450692 Ry
     xc contribution           =     -69.65531906 Ry
     ewald contribution        =    2103.24790669 Ry
     DFT-D3 Dispersion         =      -0.04094535 Ry

     convergence has been achieved in   3 iterations

     Writing output data file ./tmp/carbon_nanotube.save/

     init_run     :      4.76s CPU      7.22s WALL (       1 calls)
     electrons    :    736.69s CPU    751.21s WALL (       1 calls)

     Called by init_run:
     wfcinit      :      1.21s CPU      3.43s WALL (       1 calls)
     potinit      :      1.57s CPU      1.72s WALL (       1 calls)
     hinit0       :      0.65s CPU      0.69s WALL (       1 calls)

     Called by electrons:
     c_bands      :    666.36s CPU    678.29s WALL (       4 calls)
     sum_band     :     65.80s CPU     67.88s WALL (       4 calls)
     v_of_rho     :      4.63s CPU      5.07s WALL (       4 calls)
     v_h          :      0.49s CPU      0.50s WALL (       4 calls)
     v_xc         :      4.14s CPU      4.58s WALL (       4 calls)
     mix_rho      :      0.49s CPU      0.55s WALL (       4 calls)

     Called by c_bands:
     init_us_2    :      2.48s CPU      2.50s WALL (     192 calls)
     cegterg      :    661.92s CPU    673.81s WALL (      96 calls)

     Called by sum_band:
     sum_band:wei :      0.00s CPU      0.00s WALL (       4 calls)
     sum_band:loo :     65.05s CPU     67.06s WALL (       4 calls)
     sum_band:buf :      0.45s CPU      0.46s WALL (      96 calls)
     sum_band:ini :      1.23s CPU      1.23s WALL (      96 calls)

     Called by *egterg:
     cdiaghg      :      2.03s CPU      2.09s WALL (     565 calls)
     cegterg:over :     70.70s CPU     70.80s WALL (     517 calls)
     cegterg:upda :     40.39s CPU     40.52s WALL (     517 calls)
     cegterg:last :     64.74s CPU     64.82s WALL (     240 calls)
     cdiaghg:chol :      0.15s CPU      0.17s WALL (     565 calls)
     cdiaghg:inve :      0.02s CPU      0.02s WALL (     565 calls)
     cdiaghg:para :      0.54s CPU      0.54s WALL (    1130 calls)
     h_psi        :    463.71s CPU    475.13s WALL (     613 calls)
     g_psi        :      2.12s CPU      2.12s WALL (     517 calls)

     Called by h_psi:
     h_psi:calbec :     51.60s CPU     51.77s WALL (     613 calls)
     vloc_psi     :    364.18s CPU    375.21s WALL (     613 calls)
     add_vuspsi   :     46.52s CPU     46.56s WALL (     613 calls)

     General routines
     calbec       :     51.60s CPU     51.77s WALL (     613 calls)
     fft          :      4.09s CPU      4.33s WALL (      46 calls)
     ffts         :      0.20s CPU      0.24s WALL (       8 calls)
     fftw         :    368.68s CPU    380.36s WALL (   27432 calls)
     interpolate  :      0.55s CPU      0.59s WALL (       4 calls)

     Parallel routines
     fft_scatt_xy :     62.77s CPU     64.85s WALL (   27486 calls)
     fft_scatt_yz :    104.56s CPU    110.44s WALL (   27486 calls)

     PWSCF        :  12m22.68s CPU  12m42.51s WALL


   This run was terminated on:  20:25:31   1Sep2024            

=------------------------------------------------------------------------------=
   JOB DONE.
=------------------------------------------------------------------------------=
