
     Program PWSCF v.6.7MaX starts on  8Sep2024 at 17:22:15 

     This program is part of the open-source Quantum ESPRESSO suite
     for quantum simulation of materials; please cite
         "P. Giannozzi et al., J. Phys.:Condens. Matter 21 395502 (2009);
         "P. Giannozzi et al., J. Phys.:Condens. Matter 29 465901 (2017);
          URL http://www.quantum-espresso.org", 
     in publications or presentations arising from this work. More details at
     http://www.quantum-espresso.org/quote

     Parallel version (MPI), running on     4 processors

     MPI processes distributed on     1 nodes
     R & G space division:  proc/nbgrp/npool/nimage =       4
     Reading input from ZnO_SCF.inp

     Current dimensions of program PWSCF are:
     Max number of different atomic species (ntypx) = 10
     Max number of k-points (npk) =  40000
     Max angular momentum in pseudopotentials (lmaxx) =  3
     file Zn.pbe-dnl-kjpaw_psl.1.0.0.UPF: wavefunction(s)  4S 3D renormalized
     file O.pbe-n-kjpaw_psl.1.0.0.UPF: wavefunction(s)  2S 2P renormalized

     IMPORTANT: XC functional enforced from input :
     Exchange-correlation= PBE
                           (   1   4   3   4   0   0   0)
     Any further DFT definition will be discarded
     Please, verify this is what you really want


     Subspace diagonalization in iterative solution of the eigenvalue problem:
     one sub-group per band group will be used
     scalapack distributed-memory algorithm (size of sub-group:  2*  2 procs)

     Found symmetry operation: I + (  0.0000 -0.5000 -0.5000)
     This is a supercell, fractional translations are disabled

     Parallelization info
     --------------------
     sticks:   dense  smooth     PW     G-vecs:    dense   smooth      PW
     Min         475     276     83                15667     6955    1137
     Max         476     278     84                15668     6958    1140
     Sum        1901    1109    333                62669    27825    4553



     bravais-lattice index     =            1
     lattice parameter (alat)  =       8.6143  a.u.
     unit-cell volume          =     639.2421 (a.u.)^3
     number of atoms/cell      =            8
     number of atomic types    =            2
     number of electrons       =        72.00
     number of Kohn-Sham states=           36
     kinetic-energy cutoff     =      47.0000  Ry
     charge density cutoff     =     323.0000  Ry
     scf convergence threshold =      1.0E-08
     mixing beta               =       0.6000
     number of iterations used =            8  plain     mixing
     Exchange-correlation= PBE
                           (   1   4   3   4   0   0   0)

     celldm(1)=   8.614335  celldm(2)=   0.000000  celldm(3)=   0.000000
     celldm(4)=   0.000000  celldm(5)=   0.000000  celldm(6)=   0.000000

     crystal axes: (cart. coord. in units of alat)
               a(1) = (   1.000000   0.000000   0.000000 )  
               a(2) = (   0.000000   1.000000   0.000000 )  
               a(3) = (   0.000000   0.000000   1.000000 )  

     reciprocal axes: (cart. coord. in units 2 pi/alat)
               b(1) = (  1.000000  0.000000  0.000000 )  
               b(2) = (  0.000000  1.000000  0.000000 )  
               b(3) = (  0.000000  0.000000  1.000000 )  


     PseudoPot. # 1 for Zn read from file:
     /home/alessandro_rotondi/q-e/pseudo/Zn.pbe-dnl-kjpaw_psl.1.0.0.UPF
     MD5 check sum: c608214d9520ac179f507641260889e3
     Pseudo is Projector augmented-wave + core cor, Zval = 12.0
     Generated using &quot;atomic&quot; code by A. Dal Corso  v.6.2.2
     Shape of augmentation charge: PSQ
     Using radial grid of 1201 points,  6 beta functions with: 
                l(1) =   0
                l(2) =   0
                l(3) =   1
                l(4) =   1
                l(5) =   2
                l(6) =   2
     Q(r) pseudized with 0 coefficients 


     PseudoPot. # 2 for O  read from file:
     /home/alessandro_rotondi/q-e/pseudo/O.pbe-n-kjpaw_psl.1.0.0.UPF
     MD5 check sum: e99d9cef9b487d1ca56f5b95ecd0fd7a
     Pseudo is Projector augmented-wave + core cor, Zval =  6.0
     Generated using &quot;atomic&quot; code by A. Dal Corso  v.6.3
     Shape of augmentation charge: PSQ
     Using radial grid of 1095 points,  4 beta functions with: 
                l(1) =   0
                l(2) =   0
                l(3) =   1
                l(4) =   1
     Q(r) pseudized with 0 coefficients 


     atomic species   valence    mass     pseudopotential
        Zn            12.00    65.39000     Zn( 1.00)
        O              6.00    15.99940     O ( 1.00)

     24 Sym. Ops. (no inversion) found


                                    s                        frac. trans.

      isym =  1     identity                                     

 cryst.   s( 1) = (     1          0          0      )
                  (     0          1          0      )
                  (     0          0          1      )

 cart.    s( 1) = (  1.0000000  0.0000000  0.0000000 )
                  (  0.0000000  1.0000000  0.0000000 )
                  (  0.0000000  0.0000000  1.0000000 )


      isym =  2     180 deg rotation - cart. axis [0,0,1]        

 cryst.   s( 2) = (    -1          0          0      )
                  (     0         -1          0      )
                  (     0          0          1      )

 cart.    s( 2) = ( -1.0000000  0.0000000  0.0000000 )
                  (  0.0000000 -1.0000000  0.0000000 )
                  (  0.0000000  0.0000000  1.0000000 )


      isym =  3     180 deg rotation - cart. axis [0,1,0]        

 cryst.   s( 3) = (    -1          0          0      )
                  (     0          1          0      )
                  (     0          0         -1      )

 cart.    s( 3) = ( -1.0000000  0.0000000  0.0000000 )
                  (  0.0000000  1.0000000  0.0000000 )
                  (  0.0000000  0.0000000 -1.0000000 )


      isym =  4     180 deg rotation - cart. axis [1,0,0]        

 cryst.   s( 4) = (     1          0          0      )
                  (     0         -1          0      )
                  (     0          0         -1      )

 cart.    s( 4) = (  1.0000000  0.0000000  0.0000000 )
                  (  0.0000000 -1.0000000  0.0000000 )
                  (  0.0000000  0.0000000 -1.0000000 )


      isym =  5     120 deg rotation - cart. axis [-1,-1,-1]     

 cryst.   s( 5) = (     0          0          1      )
                  (     1          0          0      )
                  (     0          1          0      )

 cart.    s( 5) = (  0.0000000  1.0000000  0.0000000 )
                  (  0.0000000  0.0000000  1.0000000 )
                  (  1.0000000  0.0000000  0.0000000 )


      isym =  6     120 deg rotation - cart. axis [-1,1,1]       

 cryst.   s( 6) = (     0          0         -1      )
                  (    -1          0          0      )
                  (     0          1          0      )

 cart.    s( 6) = (  0.0000000 -1.0000000  0.0000000 )
                  (  0.0000000  0.0000000  1.0000000 )
                  ( -1.0000000  0.0000000  0.0000000 )


      isym =  7     120 deg rotation - cart. axis [1,1,-1]       

 cryst.   s( 7) = (     0          0         -1      )
                  (     1          0          0      )
                  (     0         -1          0      )

 cart.    s( 7) = (  0.0000000  1.0000000  0.0000000 )
                  (  0.0000000  0.0000000 -1.0000000 )
                  ( -1.0000000  0.0000000  0.0000000 )


      isym =  8     120 deg rotation - cart. axis [1,-1,1]       

 cryst.   s( 8) = (     0          0          1      )
                  (    -1          0          0      )
                  (     0         -1          0      )

 cart.    s( 8) = (  0.0000000 -1.0000000  0.0000000 )
                  (  0.0000000  0.0000000 -1.0000000 )
                  (  1.0000000  0.0000000  0.0000000 )


      isym =  9     120 deg rotation - cart. axis [1,1,1]        

 cryst.   s( 9) = (     0          1          0      )
                  (     0          0          1      )
                  (     1          0          0      )

 cart.    s( 9) = (  0.0000000  0.0000000  1.0000000 )
                  (  1.0000000  0.0000000  0.0000000 )
                  (  0.0000000  1.0000000  0.0000000 )


      isym = 10     120 deg rotation - cart. axis [-1,1,-1]      

 cryst.   s(10) = (     0         -1          0      )
                  (     0          0         -1      )
                  (     1          0          0      )

 cart.    s(10) = (  0.0000000  0.0000000  1.0000000 )
                  ( -1.0000000  0.0000000  0.0000000 )
                  (  0.0000000 -1.0000000  0.0000000 )


      isym = 11     120 deg rotation - cart. axis [1,-1,-1]      

 cryst.   s(11) = (     0         -1          0      )
                  (     0          0          1      )
                  (    -1          0          0      )

 cart.    s(11) = (  0.0000000  0.0000000 -1.0000000 )
                  ( -1.0000000  0.0000000  0.0000000 )
                  (  0.0000000  1.0000000  0.0000000 )


      isym = 12     120 deg rotation - cart. axis [-1,-1,1]      

 cryst.   s(12) = (     0          1          0      )
                  (     0          0         -1      )
                  (    -1          0          0      )

 cart.    s(12) = (  0.0000000  0.0000000 -1.0000000 )
                  (  1.0000000  0.0000000  0.0000000 )
                  (  0.0000000 -1.0000000  0.0000000 )


      isym = 13     inv. 180 deg rotation - cart. axis [1,1,0]   

 cryst.   s(13) = (     0         -1          0      )
                  (    -1          0          0      )
                  (     0          0          1      )

 cart.    s(13) = (  0.0000000 -1.0000000  0.0000000 )
                  ( -1.0000000  0.0000000  0.0000000 )
                  (  0.0000000  0.0000000  1.0000000 )


      isym = 14     inv. 180 deg rotation - cart. axis [1,-1,0]  

 cryst.   s(14) = (     0          1          0      )
                  (     1          0          0      )
                  (     0          0          1      )

 cart.    s(14) = (  0.0000000  1.0000000  0.0000000 )
                  (  1.0000000  0.0000000  0.0000000 )
                  (  0.0000000  0.0000000  1.0000000 )


      isym = 15     inv.  90 deg rotation - cart. axis [0,0,-1]  

 cryst.   s(15) = (     0          1          0      )
                  (    -1          0          0      )
                  (     0          0         -1      )

 cart.    s(15) = (  0.0000000 -1.0000000  0.0000000 )
                  (  1.0000000  0.0000000  0.0000000 )
                  (  0.0000000  0.0000000 -1.0000000 )


      isym = 16     inv.  90 deg rotation - cart. axis [0,0,1]   

 cryst.   s(16) = (     0         -1          0      )
                  (     1          0          0      )
                  (     0          0         -1      )

 cart.    s(16) = (  0.0000000  1.0000000  0.0000000 )
                  ( -1.0000000  0.0000000  0.0000000 )
                  (  0.0000000  0.0000000 -1.0000000 )


      isym = 17     inv. 180 deg rotation - cart. axis [1,0,1]   

 cryst.   s(17) = (     0          0         -1      )
                  (     0          1          0      )
                  (    -1          0          0      )

 cart.    s(17) = (  0.0000000  0.0000000 -1.0000000 )
                  (  0.0000000  1.0000000  0.0000000 )
                  ( -1.0000000  0.0000000  0.0000000 )


      isym = 18     inv. 180 deg rotation - cart. axis [-1,0,1]  

 cryst.   s(18) = (     0          0          1      )
                  (     0          1          0      )
                  (     1          0          0      )

 cart.    s(18) = (  0.0000000  0.0000000  1.0000000 )
                  (  0.0000000  1.0000000  0.0000000 )
                  (  1.0000000  0.0000000  0.0000000 )


      isym = 19     inv.  90 deg rotation - cart. axis [0,1,0]   

 cryst.   s(19) = (     0          0          1      )
                  (     0         -1          0      )
                  (    -1          0          0      )

 cart.    s(19) = (  0.0000000  0.0000000 -1.0000000 )
                  (  0.0000000 -1.0000000  0.0000000 )
                  (  1.0000000  0.0000000  0.0000000 )


      isym = 20     inv.  90 deg rotation - cart. axis [0,-1,0]  

 cryst.   s(20) = (     0          0         -1      )
                  (     0         -1          0      )
                  (     1          0          0      )

 cart.    s(20) = (  0.0000000  0.0000000  1.0000000 )
                  (  0.0000000 -1.0000000  0.0000000 )
                  ( -1.0000000  0.0000000  0.0000000 )


      isym = 21     inv. 180 deg rotation - cart. axis [0,1,1]   

 cryst.   s(21) = (     1          0          0      )
                  (     0          0         -1      )
                  (     0         -1          0      )

 cart.    s(21) = (  1.0000000  0.0000000  0.0000000 )
                  (  0.0000000  0.0000000 -1.0000000 )
                  (  0.0000000 -1.0000000  0.0000000 )


      isym = 22     inv. 180 deg rotation - cart. axis [0,1,-1]  

 cryst.   s(22) = (     1          0          0      )
                  (     0          0          1      )
                  (     0          1          0      )

 cart.    s(22) = (  1.0000000  0.0000000  0.0000000 )
                  (  0.0000000  0.0000000  1.0000000 )
                  (  0.0000000  1.0000000  0.0000000 )


      isym = 23     inv.  90 deg rotation - cart. axis [-1,0,0]  

 cryst.   s(23) = (    -1          0          0      )
                  (     0          0          1      )
                  (     0         -1          0      )

 cart.    s(23) = ( -1.0000000  0.0000000  0.0000000 )
                  (  0.0000000  0.0000000 -1.0000000 )
                  (  0.0000000  1.0000000  0.0000000 )


      isym = 24     inv.  90 deg rotation - cart. axis [1,0,0]   

 cryst.   s(24) = (    -1          0          0      )
                  (     0          0         -1      )
                  (     0          1          0      )

 cart.    s(24) = ( -1.0000000  0.0000000  0.0000000 )
                  (  0.0000000  0.0000000  1.0000000 )
                  (  0.0000000 -1.0000000  0.0000000 )


     point group T_d (-43m) 
     there are  5 classes
     the character table:

       E     8C3   3C2   6S4   6s_d 
A_1    1.00  1.00  1.00  1.00  1.00
A_2    1.00  1.00  1.00 -1.00 -1.00
E      2.00 -1.00  2.00  0.00  0.00
T_1    3.00  0.00 -1.00  1.00 -1.00
T_2    3.00  0.00 -1.00 -1.00  1.00

     the symmetry operations in each class and the name of the first element:

     E        1
          identity                                               
     8C3      5    7    8    6   12    9   10   11
          120 deg rotation - cart. axis [-1,-1,-1]               
     3C2      2    3    4
          180 deg rotation - cart. axis [0,0,1]                  
     6S4     15   16   20   19   23   24
          inv.  90 deg rotation - cart. axis [0,0,-1]            
     6s_d    13   14   17   18   21   22
          inv. 180 deg rotation - cart. axis [1,1,0]             

   Cartesian axes

     site n.     atom                  positions (alat units)
         1           Zn  tau(   1) = (   0.0000000   0.0000000   0.0000000  )
         2           Zn  tau(   2) = (   0.0000000   0.5000000   0.5000000  )
         3           Zn  tau(   3) = (   0.5000000   0.0000000   0.5000000  )
         4           Zn  tau(   4) = (   0.5000000   0.5000000   0.0000000  )
         5           O   tau(   5) = (   0.7500000   0.7500000   0.7500000  )
         6           O   tau(   6) = (   0.7500000   0.2500000   0.2500000  )
         7           O   tau(   7) = (   0.2500000   0.7500000   0.2500000  )
         8           O   tau(   8) = (   0.2500000   0.2500000   0.7500000  )

   Crystallographic axes

     site n.     atom                  positions (cryst. coord.)
         1           Zn  tau(   1) = (  0.0000000  0.0000000  0.0000000  )
         2           Zn  tau(   2) = (  0.0000000  0.5000000  0.5000000  )
         3           Zn  tau(   3) = (  0.5000000  0.0000000  0.5000000  )
         4           Zn  tau(   4) = (  0.5000000  0.5000000  0.0000000  )
         5           O   tau(   5) = (  0.7500000  0.7500000  0.7500000  )
         6           O   tau(   6) = (  0.7500000  0.2500000  0.2500000  )
         7           O   tau(   7) = (  0.2500000  0.7500000  0.2500000  )
         8           O   tau(   8) = (  0.2500000  0.2500000  0.7500000  )

     number of k points=    84
                       cart. coord. in units 2pi/alat
        k(    1) = (   0.0000000   0.0000000   0.0000000), wk =   0.0011574
        k(    2) = (   0.0000000   0.0000000   0.0833333), wk =   0.0069444
        k(    3) = (   0.0000000   0.0000000   0.1666667), wk =   0.0069444
        k(    4) = (   0.0000000   0.0000000   0.2500000), wk =   0.0069444
        k(    5) = (   0.0000000   0.0000000   0.3333333), wk =   0.0069444
        k(    6) = (   0.0000000   0.0000000   0.4166667), wk =   0.0069444
        k(    7) = (   0.0000000   0.0000000  -0.5000000), wk =   0.0034722
        k(    8) = (   0.0000000   0.0833333   0.0833333), wk =   0.0138889
        k(    9) = (   0.0000000   0.0833333   0.1666667), wk =   0.0277778
        k(   10) = (   0.0000000   0.0833333   0.2500000), wk =   0.0277778
        k(   11) = (   0.0000000   0.0833333   0.3333333), wk =   0.0277778
        k(   12) = (   0.0000000   0.0833333   0.4166667), wk =   0.0277778
        k(   13) = (   0.0000000   0.0833333  -0.5000000), wk =   0.0138889
        k(   14) = (   0.0000000   0.1666667   0.1666667), wk =   0.0138889
        k(   15) = (   0.0000000   0.1666667   0.2500000), wk =   0.0277778
        k(   16) = (   0.0000000   0.1666667   0.3333333), wk =   0.0277778
        k(   17) = (   0.0000000   0.1666667   0.4166667), wk =   0.0277778
        k(   18) = (   0.0000000   0.1666667  -0.5000000), wk =   0.0138889
        k(   19) = (   0.0000000   0.2500000   0.2500000), wk =   0.0138889
        k(   20) = (   0.0000000   0.2500000   0.3333333), wk =   0.0277778
        k(   21) = (   0.0000000   0.2500000   0.4166667), wk =   0.0277778
        k(   22) = (   0.0000000   0.2500000  -0.5000000), wk =   0.0138889
        k(   23) = (   0.0000000   0.3333333   0.3333333), wk =   0.0138889
        k(   24) = (   0.0000000   0.3333333   0.4166667), wk =   0.0277778
        k(   25) = (   0.0000000   0.3333333  -0.5000000), wk =   0.0138889
        k(   26) = (   0.0000000   0.4166667   0.4166667), wk =   0.0138889
        k(   27) = (   0.0000000   0.4166667  -0.5000000), wk =   0.0138889
        k(   28) = (   0.0000000  -0.5000000  -0.5000000), wk =   0.0034722
        k(   29) = (   0.0833333   0.0833333   0.0833333), wk =   0.0092593
        k(   30) = (   0.0833333   0.0833333   0.1666667), wk =   0.0277778
        k(   31) = (   0.0833333   0.0833333   0.2500000), wk =   0.0277778
        k(   32) = (   0.0833333   0.0833333   0.3333333), wk =   0.0277778
        k(   33) = (   0.0833333   0.0833333   0.4166667), wk =   0.0277778
        k(   34) = (   0.0833333   0.0833333  -0.5000000), wk =   0.0138889
        k(   35) = (   0.0833333   0.1666667   0.1666667), wk =   0.0277778
        k(   36) = (   0.0833333   0.1666667   0.2500000), wk =   0.0555556
        k(   37) = (   0.0833333   0.1666667   0.3333333), wk =   0.0555556
        k(   38) = (   0.0833333   0.1666667   0.4166667), wk =   0.0555556
        k(   39) = (   0.0833333   0.1666667  -0.5000000), wk =   0.0277778
        k(   40) = (   0.0833333   0.2500000   0.2500000), wk =   0.0277778
        k(   41) = (   0.0833333   0.2500000   0.3333333), wk =   0.0555556
        k(   42) = (   0.0833333   0.2500000   0.4166667), wk =   0.0555556
        k(   43) = (   0.0833333   0.2500000  -0.5000000), wk =   0.0277778
        k(   44) = (   0.0833333   0.3333333   0.3333333), wk =   0.0277778
        k(   45) = (   0.0833333   0.3333333   0.4166667), wk =   0.0555556
        k(   46) = (   0.0833333   0.3333333  -0.5000000), wk =   0.0277778
        k(   47) = (   0.0833333   0.4166667   0.4166667), wk =   0.0277778
        k(   48) = (   0.0833333   0.4166667  -0.5000000), wk =   0.0277778
        k(   49) = (   0.0833333  -0.5000000  -0.5000000), wk =   0.0069444
        k(   50) = (   0.1666667   0.1666667   0.1666667), wk =   0.0092593
        k(   51) = (   0.1666667   0.1666667   0.2500000), wk =   0.0277778
        k(   52) = (   0.1666667   0.1666667   0.3333333), wk =   0.0277778
        k(   53) = (   0.1666667   0.1666667   0.4166667), wk =   0.0277778
        k(   54) = (   0.1666667   0.1666667  -0.5000000), wk =   0.0138889
        k(   55) = (   0.1666667   0.2500000   0.2500000), wk =   0.0277778
        k(   56) = (   0.1666667   0.2500000   0.3333333), wk =   0.0555556
        k(   57) = (   0.1666667   0.2500000   0.4166667), wk =   0.0555556
        k(   58) = (   0.1666667   0.2500000  -0.5000000), wk =   0.0277778
        k(   59) = (   0.1666667   0.3333333   0.3333333), wk =   0.0277778
        k(   60) = (   0.1666667   0.3333333   0.4166667), wk =   0.0555556
        k(   61) = (   0.1666667   0.3333333  -0.5000000), wk =   0.0277778
        k(   62) = (   0.1666667   0.4166667   0.4166667), wk =   0.0277778
        k(   63) = (   0.1666667   0.4166667  -0.5000000), wk =   0.0277778
        k(   64) = (   0.1666667  -0.5000000  -0.5000000), wk =   0.0069444
        k(   65) = (   0.2500000   0.2500000   0.2500000), wk =   0.0092593
        k(   66) = (   0.2500000   0.2500000   0.3333333), wk =   0.0277778
        k(   67) = (   0.2500000   0.2500000   0.4166667), wk =   0.0277778
        k(   68) = (   0.2500000   0.2500000  -0.5000000), wk =   0.0138889
        k(   69) = (   0.2500000   0.3333333   0.3333333), wk =   0.0277778
        k(   70) = (   0.2500000   0.3333333   0.4166667), wk =   0.0555556
        k(   71) = (   0.2500000   0.3333333  -0.5000000), wk =   0.0277778
        k(   72) = (   0.2500000   0.4166667   0.4166667), wk =   0.0277778
        k(   73) = (   0.2500000   0.4166667  -0.5000000), wk =   0.0277778
        k(   74) = (   0.2500000  -0.5000000  -0.5000000), wk =   0.0069444
        k(   75) = (   0.3333333   0.3333333   0.3333333), wk =   0.0092593
        k(   76) = (   0.3333333   0.3333333   0.4166667), wk =   0.0277778
        k(   77) = (   0.3333333   0.3333333  -0.5000000), wk =   0.0138889
        k(   78) = (   0.3333333   0.4166667   0.4166667), wk =   0.0277778
        k(   79) = (   0.3333333   0.4166667  -0.5000000), wk =   0.0277778
        k(   80) = (   0.3333333  -0.5000000  -0.5000000), wk =   0.0069444
        k(   81) = (   0.4166667   0.4166667   0.4166667), wk =   0.0092593
        k(   82) = (   0.4166667   0.4166667  -0.5000000), wk =   0.0138889
        k(   83) = (   0.4166667  -0.5000000  -0.5000000), wk =   0.0069444
        k(   84) = (  -0.5000000  -0.5000000  -0.5000000), wk =   0.0011574

                       cryst. coord.
        k(    1) = (   0.0000000   0.0000000   0.0000000), wk =   0.0011574
        k(    2) = (   0.0000000   0.0000000   0.0833333), wk =   0.0069444
        k(    3) = (   0.0000000   0.0000000   0.1666667), wk =   0.0069444
        k(    4) = (   0.0000000   0.0000000   0.2500000), wk =   0.0069444
        k(    5) = (   0.0000000   0.0000000   0.3333333), wk =   0.0069444
        k(    6) = (   0.0000000   0.0000000   0.4166667), wk =   0.0069444
        k(    7) = (   0.0000000   0.0000000  -0.5000000), wk =   0.0034722
        k(    8) = (   0.0000000   0.0833333   0.0833333), wk =   0.0138889
        k(    9) = (   0.0000000   0.0833333   0.1666667), wk =   0.0277778
        k(   10) = (   0.0000000   0.0833333   0.2500000), wk =   0.0277778
        k(   11) = (   0.0000000   0.0833333   0.3333333), wk =   0.0277778
        k(   12) = (   0.0000000   0.0833333   0.4166667), wk =   0.0277778
        k(   13) = (   0.0000000   0.0833333  -0.5000000), wk =   0.0138889
        k(   14) = (   0.0000000   0.1666667   0.1666667), wk =   0.0138889
        k(   15) = (   0.0000000   0.1666667   0.2500000), wk =   0.0277778
        k(   16) = (   0.0000000   0.1666667   0.3333333), wk =   0.0277778
        k(   17) = (   0.0000000   0.1666667   0.4166667), wk =   0.0277778
        k(   18) = (   0.0000000   0.1666667  -0.5000000), wk =   0.0138889
        k(   19) = (   0.0000000   0.2500000   0.2500000), wk =   0.0138889
        k(   20) = (   0.0000000   0.2500000   0.3333333), wk =   0.0277778
        k(   21) = (   0.0000000   0.2500000   0.4166667), wk =   0.0277778
        k(   22) = (   0.0000000   0.2500000  -0.5000000), wk =   0.0138889
        k(   23) = (   0.0000000   0.3333333   0.3333333), wk =   0.0138889
        k(   24) = (   0.0000000   0.3333333   0.4166667), wk =   0.0277778
        k(   25) = (   0.0000000   0.3333333  -0.5000000), wk =   0.0138889
        k(   26) = (   0.0000000   0.4166667   0.4166667), wk =   0.0138889
        k(   27) = (   0.0000000   0.4166667  -0.5000000), wk =   0.0138889
        k(   28) = (   0.0000000  -0.5000000  -0.5000000), wk =   0.0034722
        k(   29) = (   0.0833333   0.0833333   0.0833333), wk =   0.0092593
        k(   30) = (   0.0833333   0.0833333   0.1666667), wk =   0.0277778
        k(   31) = (   0.0833333   0.0833333   0.2500000), wk =   0.0277778
        k(   32) = (   0.0833333   0.0833333   0.3333333), wk =   0.0277778
        k(   33) = (   0.0833333   0.0833333   0.4166667), wk =   0.0277778
        k(   34) = (   0.0833333   0.0833333  -0.5000000), wk =   0.0138889
        k(   35) = (   0.0833333   0.1666667   0.1666667), wk =   0.0277778
        k(   36) = (   0.0833333   0.1666667   0.2500000), wk =   0.0555556
        k(   37) = (   0.0833333   0.1666667   0.3333333), wk =   0.0555556
        k(   38) = (   0.0833333   0.1666667   0.4166667), wk =   0.0555556
        k(   39) = (   0.0833333   0.1666667  -0.5000000), wk =   0.0277778
        k(   40) = (   0.0833333   0.2500000   0.2500000), wk =   0.0277778
        k(   41) = (   0.0833333   0.2500000   0.3333333), wk =   0.0555556
        k(   42) = (   0.0833333   0.2500000   0.4166667), wk =   0.0555556
        k(   43) = (   0.0833333   0.2500000  -0.5000000), wk =   0.0277778
        k(   44) = (   0.0833333   0.3333333   0.3333333), wk =   0.0277778
        k(   45) = (   0.0833333   0.3333333   0.4166667), wk =   0.0555556
        k(   46) = (   0.0833333   0.3333333  -0.5000000), wk =   0.0277778
        k(   47) = (   0.0833333   0.4166667   0.4166667), wk =   0.0277778
        k(   48) = (   0.0833333   0.4166667  -0.5000000), wk =   0.0277778
        k(   49) = (   0.0833333  -0.5000000  -0.5000000), wk =   0.0069444
        k(   50) = (   0.1666667   0.1666667   0.1666667), wk =   0.0092593
        k(   51) = (   0.1666667   0.1666667   0.2500000), wk =   0.0277778
        k(   52) = (   0.1666667   0.1666667   0.3333333), wk =   0.0277778
        k(   53) = (   0.1666667   0.1666667   0.4166667), wk =   0.0277778
        k(   54) = (   0.1666667   0.1666667  -0.5000000), wk =   0.0138889
        k(   55) = (   0.1666667   0.2500000   0.2500000), wk =   0.0277778
        k(   56) = (   0.1666667   0.2500000   0.3333333), wk =   0.0555556
        k(   57) = (   0.1666667   0.2500000   0.4166667), wk =   0.0555556
        k(   58) = (   0.1666667   0.2500000  -0.5000000), wk =   0.0277778
        k(   59) = (   0.1666667   0.3333333   0.3333333), wk =   0.0277778
        k(   60) = (   0.1666667   0.3333333   0.4166667), wk =   0.0555556
        k(   61) = (   0.1666667   0.3333333  -0.5000000), wk =   0.0277778
        k(   62) = (   0.1666667   0.4166667   0.4166667), wk =   0.0277778
        k(   63) = (   0.1666667   0.4166667  -0.5000000), wk =   0.0277778
        k(   64) = (   0.1666667  -0.5000000  -0.5000000), wk =   0.0069444
        k(   65) = (   0.2500000   0.2500000   0.2500000), wk =   0.0092593
        k(   66) = (   0.2500000   0.2500000   0.3333333), wk =   0.0277778
        k(   67) = (   0.2500000   0.2500000   0.4166667), wk =   0.0277778
        k(   68) = (   0.2500000   0.2500000  -0.5000000), wk =   0.0138889
        k(   69) = (   0.2500000   0.3333333   0.3333333), wk =   0.0277778
        k(   70) = (   0.2500000   0.3333333   0.4166667), wk =   0.0555556
        k(   71) = (   0.2500000   0.3333333  -0.5000000), wk =   0.0277778
        k(   72) = (   0.2500000   0.4166667   0.4166667), wk =   0.0277778
        k(   73) = (   0.2500000   0.4166667  -0.5000000), wk =   0.0277778
        k(   74) = (   0.2500000  -0.5000000  -0.5000000), wk =   0.0069444
        k(   75) = (   0.3333333   0.3333333   0.3333333), wk =   0.0092593
        k(   76) = (   0.3333333   0.3333333   0.4166667), wk =   0.0277778
        k(   77) = (   0.3333333   0.3333333  -0.5000000), wk =   0.0138889
        k(   78) = (   0.3333333   0.4166667   0.4166667), wk =   0.0277778
        k(   79) = (   0.3333333   0.4166667  -0.5000000), wk =   0.0277778
        k(   80) = (   0.3333333  -0.5000000  -0.5000000), wk =   0.0069444
        k(   81) = (   0.4166667   0.4166667   0.4166667), wk =   0.0092593
        k(   82) = (   0.4166667   0.4166667  -0.5000000), wk =   0.0138889
        k(   83) = (   0.4166667  -0.5000000  -0.5000000), wk =   0.0069444
        k(   84) = (  -0.5000000  -0.5000000  -0.5000000), wk =   0.0011574

     Dense  grid:    62669 G-vectors     FFT dimensions: (  50,  50,  50)

     Smooth grid:    27825 G-vectors     FFT dimensions: (  40,  40,  40)

     Dynamical RAM for                 wfc:       0.48 MB

     Dynamical RAM for     wfc (w. buffer):      40.58 MB

     Dynamical RAM for           str. fact:       0.48 MB

     Dynamical RAM for           local pot:       0.00 MB

     Dynamical RAM for          nlocal pot:       1.38 MB

     Dynamical RAM for                qrad:       2.89 MB

     Dynamical RAM for          rho,v,vnew:       2.92 MB

     Dynamical RAM for               rhoin:       0.97 MB

     Dynamical RAM for            rho*nmix:       7.65 MB

     Dynamical RAM for           G-vectors:       0.95 MB

     Dynamical RAM for          h,s,v(r/c):       0.06 MB

     Dynamical RAM for          <psi|beta>:       0.06 MB

     Dynamical RAM for                 psi:       0.95 MB

     Dynamical RAM for                hpsi:       0.95 MB

     Dynamical RAM for                spsi:       0.95 MB

     Dynamical RAM for      wfcinit/wfcrot:       1.44 MB

     Dynamical RAM for           addusdens:      45.42 MB

     Estimated static dynamical RAM per process >      59.77 MB

     Estimated max dynamical RAM per process >     105.19 MB

     Estimated total dynamical RAM >     420.77 MB

     Check: negative core charge=   -0.000002

     Initial potential from superposition of free atoms

     starting charge   71.98510, renormalised to   72.00000
     Starting wfcs are   52 randomized atomic wfcs
     Checking if some PAW data can be deallocated... 
       PAW data deallocated on    2 nodes for type:  1
       PAW data deallocated on    2 nodes for type:  2

     total cpu time spent up to now is        8.3 secs

     Self-consistent Calculation

     iteration #  1     ecut=    47.00 Ry     beta= 0.60
     Davidson diagonalization with overlap
     ethr =  1.00E-02,  avg # of iterations =  2.0

     total cpu time spent up to now is       27.0 secs

     total energy              =   -1141.13694840 Ry
     estimated scf accuracy    <       1.36015333 Ry

     iteration #  2     ecut=    47.00 Ry     beta= 0.60
     Davidson diagonalization with overlap
     ethr =  1.89E-03,  avg # of iterations =  5.9

     total cpu time spent up to now is       59.1 secs

     total energy              =   -1141.68069853 Ry
     estimated scf accuracy    <       0.55786012 Ry

     iteration #  3     ecut=    47.00 Ry     beta= 0.60
     Davidson diagonalization with overlap
     ethr =  7.75E-04,  avg # of iterations =  2.0

     total cpu time spent up to now is       80.5 secs

     total energy              =   -1141.65477719 Ry
     estimated scf accuracy    <       0.12178228 Ry

     iteration #  4     ecut=    47.00 Ry     beta= 0.60
     Davidson diagonalization with overlap
     ethr =  1.69E-04,  avg # of iterations =  8.8

     total cpu time spent up to now is      128.9 secs

     total energy              =   -1142.01868231 Ry
     estimated scf accuracy    <       0.37188233 Ry

     iteration #  5     ecut=    47.00 Ry     beta= 0.60
     Davidson diagonalization with overlap
     ethr =  1.69E-04,  avg # of iterations =  4.1

     total cpu time spent up to now is      153.9 secs

     total energy              =   -1141.53598881 Ry
     estimated scf accuracy    <       0.72365694 Ry

     iteration #  6     ecut=    47.00 Ry     beta= 0.60
     Davidson diagonalization with overlap
     ethr =  1.69E-04,  avg # of iterations =  9.9

     total cpu time spent up to now is      207.7 secs

     total energy              =   -1141.88023481 Ry
     estimated scf accuracy    <       0.31053924 Ry

     iteration #  7     ecut=    47.00 Ry     beta= 0.60
     Davidson diagonalization with overlap
     ethr =  1.69E-04,  avg # of iterations =  1.4

     total cpu time spent up to now is      228.1 secs

     total energy              =   -1141.87769785 Ry
     estimated scf accuracy    <       0.32641724 Ry

     iteration #  8     ecut=    47.00 Ry     beta= 0.60
     Davidson diagonalization with overlap
     ethr =  1.69E-04,  avg # of iterations =  1.0

     total cpu time spent up to now is      247.0 secs

     total energy              =   -1141.77355837 Ry
     estimated scf accuracy    <       0.32797281 Ry

     iteration #  9     ecut=    47.00 Ry     beta= 0.60
     Davidson diagonalization with overlap
     ethr =  1.69E-04,  avg # of iterations =  2.0

     total cpu time spent up to now is      269.2 secs

     total energy              =   -1141.76370033 Ry
     estimated scf accuracy    <       0.14054223 Ry

     iteration # 10     ecut=    47.00 Ry     beta= 0.60
     Davidson diagonalization with overlap
     ethr =  1.69E-04,  avg # of iterations =  2.6

     total cpu time spent up to now is      293.2 secs

     total energy              =   -1141.78126964 Ry
     estimated scf accuracy    <       0.04679036 Ry

     iteration # 11     ecut=    47.00 Ry     beta= 0.60
     Davidson diagonalization with overlap
     ethr =  6.50E-05,  avg # of iterations =  4.1

     total cpu time spent up to now is      317.6 secs

     total energy              =   -1141.79458216 Ry
     estimated scf accuracy    <       0.02301351 Ry

     iteration # 12     ecut=    47.00 Ry     beta= 0.60
     Davidson diagonalization with overlap
     ethr =  3.20E-05,  avg # of iterations =  2.1

     total cpu time spent up to now is      339.4 secs

     total energy              =   -1141.80064179 Ry
     estimated scf accuracy    <       0.03019407 Ry

     iteration # 13     ecut=    47.00 Ry     beta= 0.60
     Davidson diagonalization with overlap
     ethr =  3.20E-05,  avg # of iterations =  1.6

     total cpu time spent up to now is      359.3 secs

     total energy              =   -1141.79094039 Ry
     estimated scf accuracy    <       0.04152272 Ry

     iteration # 14     ecut=    47.00 Ry     beta= 0.60
     Davidson diagonalization with overlap
     ethr =  3.20E-05,  avg # of iterations =  1.6

     total cpu time spent up to now is      379.5 secs

     total energy              =   -1141.78869760 Ry
     estimated scf accuracy    <       0.02155051 Ry

     iteration # 15     ecut=    47.00 Ry     beta= 0.60
     Davidson diagonalization with overlap
     ethr =  2.99E-05,  avg # of iterations =  2.0

     total cpu time spent up to now is      401.9 secs

     total energy              =   -1141.78478585 Ry
     estimated scf accuracy    <       0.00955385 Ry

     iteration # 16     ecut=    47.00 Ry     beta= 0.60
     Davidson diagonalization with overlap
     ethr =  1.33E-05,  avg # of iterations =  6.8

     total cpu time spent up to now is      443.7 secs

     total energy              =   -1141.79567089 Ry
     estimated scf accuracy    <       0.00938989 Ry

     iteration # 17     ecut=    47.00 Ry     beta= 0.60
     Davidson diagonalization with overlap
     ethr =  1.30E-05,  avg # of iterations = 11.7

     total cpu time spent up to now is      506.9 secs

     total energy              =   -1141.92603111 Ry
     estimated scf accuracy    <       0.28848927 Ry

     iteration # 18     ecut=    47.00 Ry     beta= 0.60
     Davidson diagonalization with overlap
     ethr =  1.30E-05,  avg # of iterations =  5.8

     total cpu time spent up to now is      538.7 secs

     total energy              =   -1141.95378313 Ry
     estimated scf accuracy    <       0.55333458 Ry

     iteration # 19     ecut=    47.00 Ry     beta= 0.60
     Davidson diagonalization with overlap
     ethr =  1.30E-05,  avg # of iterations =  2.1

     total cpu time spent up to now is      558.3 secs

     total energy              =   -1141.68128174 Ry
     estimated scf accuracy    <       0.60272778 Ry

     iteration # 20     ecut=    47.00 Ry     beta= 0.60
     Davidson diagonalization with overlap
     c_bands:  1 eigenvalues not converged
     ethr =  1.30E-05,  avg # of iterations = 13.0

     total cpu time spent up to now is      632.7 secs

     total energy              =   -1141.79021561 Ry
     estimated scf accuracy    <       0.00023874 Ry

     iteration # 21     ecut=    47.00 Ry     beta= 0.60
     Davidson diagonalization with overlap
     ethr =  3.32E-07,  avg # of iterations =  7.3

     total cpu time spent up to now is      677.5 secs

     total energy              =   -1141.79053657 Ry
     estimated scf accuracy    <       0.00024077 Ry

     iteration # 22     ecut=    47.00 Ry     beta= 0.60
     Davidson diagonalization with overlap
     ethr =  3.32E-07,  avg # of iterations =  1.1

     total cpu time spent up to now is      696.5 secs

     total energy              =   -1141.79046570 Ry
     estimated scf accuracy    <       0.00019062 Ry

     iteration # 23     ecut=    47.00 Ry     beta= 0.60
     Davidson diagonalization with overlap
     ethr =  2.65E-07,  avg # of iterations =  2.2

     total cpu time spent up to now is      719.4 secs

     total energy              =   -1141.79046742 Ry
     estimated scf accuracy    <       0.00004552 Ry

     iteration # 24     ecut=    47.00 Ry     beta= 0.60
     Davidson diagonalization with overlap
     ethr =  6.32E-08,  avg # of iterations =  6.4

     total cpu time spent up to now is      756.7 secs

     total energy              =   -1141.79049643 Ry
     estimated scf accuracy    <       0.00000417 Ry

     iteration # 25     ecut=    47.00 Ry     beta= 0.60
     Davidson diagonalization with overlap
     ethr =  5.79E-09,  avg # of iterations =  4.5

     total cpu time spent up to now is      780.5 secs

     total energy              =   -1141.79049526 Ry
     estimated scf accuracy    <       0.00000303 Ry

     iteration # 26     ecut=    47.00 Ry     beta= 0.60
     Davidson diagonalization with overlap
     ethr =  4.21E-09,  avg # of iterations =  6.0

     total cpu time spent up to now is      818.2 secs

     total energy              =   -1141.79049660 Ry
     estimated scf accuracy    <       0.00000116 Ry

     iteration # 27     ecut=    47.00 Ry     beta= 0.60
     Davidson diagonalization with overlap
     ethr =  1.60E-09,  avg # of iterations =  2.0

     total cpu time spent up to now is      840.2 secs

     total energy              =   -1141.79049644 Ry
     estimated scf accuracy    <       0.00000039 Ry

     iteration # 28     ecut=    47.00 Ry     beta= 0.60
     Davidson diagonalization with overlap
     ethr =  5.38E-10,  avg # of iterations =  6.5

     total cpu time spent up to now is      881.3 secs

     total energy              =   -1141.79049668 Ry
     estimated scf accuracy    <       0.00000030 Ry

     iteration # 29     ecut=    47.00 Ry     beta= 0.60
     Davidson diagonalization with overlap
     ethr =  4.16E-10,  avg # of iterations =  2.0

     total cpu time spent up to now is      904.3 secs

     total energy              =   -1141.79049667 Ry
     estimated scf accuracy    <       0.00000009 Ry

     iteration # 30     ecut=    47.00 Ry     beta= 0.60
     Davidson diagonalization with overlap
     ethr =  1.26E-10,  avg # of iterations =  4.9

     total cpu time spent up to now is      935.2 secs

     End of self-consistent calculation

          k = 0.0000 0.0000 0.0000 (  3431 PWs)   bands (ev):

   -10.7757  -9.8621  -9.8621  -9.8621   1.0999   1.0999   1.0999   1.6052
     1.6052   1.6052   2.4992   2.4992   2.4992   2.4993   2.4993   2.4993
     2.9468   2.9468   2.9536   2.9536   2.9536   3.1004   3.1004   3.1004
     4.1488   4.1488   4.1488   5.1096   5.1096   5.1096   5.1096   5.1096
     5.1096   7.3639   7.3639   7.3639

     occupation numbers 
     1.0000   1.0000   1.0000   1.0000   1.0000   1.0000   1.0000   1.0000
     1.0000   1.0000   1.0000   1.0000   1.0000   1.0000   1.0000   1.0000
     1.0000   1.0000   1.0000   1.0000   1.0000   1.0000   1.0000   1.0000
     1.0000   1.0000   1.0000   1.0000   1.0000   1.0000   1.0000   1.0000
     1.0000   1.0000   1.0000   1.0000

          k = 0.0000 0.0000 0.0833 (  3463 PWs)   bands (ev):

   -10.7608  -9.8783  -9.8619  -9.8619   1.0979   1.1239   1.1239   1.5875
     1.6149   1.6149   2.4718   2.4718   2.4900   2.4900   2.4943   2.4943
     2.9291   2.9414   2.9495   2.9799   2.9799   3.0939   3.0939   3.0975
     4.1081   4.1081   4.2159   5.0628   5.0628   5.1249   5.1249   5.1582
     5.1582   7.1225   7.3297   7.3297

     occupation numbers 
     1.0000   1.0000   1.0000   1.0000   1.0000   1.0000   1.0000   1.0000
     1.0000   1.0000   1.0000   1.0000   1.0000   1.0000   1.0000   1.0000
     1.0000   1.0000   1.0000   1.0000   1.0000   1.0000   1.0000   1.0000
     1.0000   1.0000   1.0000   1.0000   1.0000   1.0000   1.0000   1.0000
     1.0000   1.0000   1.0000   1.0000

          k = 0.0000 0.0000 0.1667 (  3483 PWs)   bands (ev):

   -10.7169  -9.9256  -9.8612  -9.8612   1.0945   1.1937   1.1937   1.5365
     1.6431   1.6431   2.3972   2.3972   2.4691   2.4691   2.4782   2.4782
     2.8760   2.9249   2.9571   3.0529   3.0529   3.0747   3.0747   3.0897
     4.0040   4.0040   4.3921   4.9340   4.9340   5.1614   5.1614   5.2961
     5.2961   6.7471   7.2289   7.2289

     occupation numbers 
     1.0000   1.0000   1.0000   1.0000   1.0000   1.0000   1.0000   1.0000
     1.0000   1.0000   1.0000   1.0000   1.0000   1.0000   1.0000   1.0000
     1.0000   1.0000   1.0000   1.0000   1.0000   1.0000   1.0000   1.0000
     1.0000   1.0000   1.0000   1.0000   1.0000   1.0000   1.0000   1.0000
     1.0000   1.0000   1.0000   1.0000

          k = 0.0000 0.0000 0.2500 (  3495 PWs)   bands (ev):

   -10.6467 -10.0004  -9.8604  -9.8604   1.0966   1.3011   1.3011   1.4607
     1.6901   1.6901   2.2922   2.2922   2.4454   2.4454   2.4470   2.4470
     2.8275   2.9001   2.9692   3.0409   3.0409   3.0776   3.1592   3.1592
     3.8755   3.8755   4.6320   4.7517   4.7517   5.2015   5.2015   5.5037
     5.5037   6.3893   7.0676   7.0676

     occupation numbers 
     1.0000   1.0000   1.0000   1.0000   1.0000   1.0000   1.0000   1.0000
     1.0000   1.0000   1.0000   1.0000   1.0000   1.0000   1.0000   1.0000
     1.0000   1.0000   1.0000   1.0000   1.0000   1.0000   1.0000   1.0000
     1.0000   1.0000   1.0000   1.0000   1.0000   1.0000   1.0000   1.0000
     1.0000   1.0000   1.0000   1.0000

          k = 0.0000 0.0000 0.3333 (  3499 PWs)   bands (ev):

   -10.5544 -10.0973  -9.8595  -9.8595   1.1122   1.3721   1.4303   1.4303
     1.7559   1.7559   2.1727   2.1727   2.3970   2.3970   2.4257   2.4257
     2.8002   2.8702   2.9851   2.9969   2.9969   3.0617   3.2821   3.2821
     3.7627   3.7627   4.5539   4.5539   4.9012   5.2342   5.2342   5.7583
     5.7583   6.0612   6.8550   6.8550

     occupation numbers 
     1.0000   1.0000   1.0000   1.0000   1.0000   1.0000   1.0000   1.0000
     1.0000   1.0000   1.0000   1.0000   1.0000   1.0000   1.0000   1.0000
     1.0000   1.0000   1.0000   1.0000   1.0000   1.0000   1.0000   1.0000
     1.0000   1.0000   1.0000   1.0000   1.0000   1.0000   1.0000   1.0000
     1.0000   1.0000   1.0000   1.0000

          k = 0.0000 0.0000 0.4167 (  3490 PWs)   bands (ev):

   -10.4459 -10.2092  -9.8588  -9.8588   1.1480   1.2834   1.5487   1.5487
     1.8395   1.8395   2.0522   2.0522   2.3368   2.3368   2.4130   2.4130
     2.7967   2.8386   2.9583   2.9583   3.0035   3.0431   3.3939   3.3939
     3.6906   3.6906   4.3885   4.3885   5.1814   5.2546   5.2546   5.7565
     6.0386   6.0386   6.6031   6.6031

     occupation numbers 
     1.0000   1.0000   1.0000   1.0000   1.0000   1.0000   1.0000   1.0000
     1.0000   1.0000   1.0000   1.0000   1.0000   1.0000   1.0000   1.0000
     1.0000   1.0000   1.0000   1.0000   1.0000   1.0000   1.0000   1.0000
     1.0000   1.0000   1.0000   1.0000   1.0000   1.0000   1.0000   1.0000
     1.0000   1.0000   1.0000   1.0000

          k = 0.0000 0.0000-0.5000 (  3514 PWs)   bands (ev):

   -10.3282 -10.3282  -9.8586  -9.8586   1.2059   1.2059   1.6009   1.6009
     1.9390   1.9390   1.9390   1.9390   2.3056   2.3056   2.4088   2.4088
     2.8115   2.8115   2.9429   2.9429   3.0229   3.0229   3.4436   3.4436
     3.6666   3.6666   4.3196   4.3196   5.2616   5.2616   5.4657   5.4657
     6.3257   6.3257   6.3257   6.3257

     occupation numbers 
     1.0000   1.0000   1.0000   1.0000   1.0000   1.0000   1.0000   1.0000
     1.0000   1.0000   1.0000   1.0000   1.0000   1.0000   1.0000   1.0000
     1.0000   1.0000   1.0000   1.0000   1.0000   1.0000   1.0000   1.0000
     1.0000   1.0000   1.0000   1.0000   1.0000   1.0000   1.0000   1.0000
     1.0000   1.0000   1.0000   1.0000

          k = 0.0000 0.0833 0.0833 (  3485 PWs)   bands (ev):

   -10.7461  -9.8777  -9.8777  -9.8619   1.1218   1.1218   1.1471   1.5759
     1.6186   1.6238   2.4564   2.4564   2.4706   2.4721   2.4721   2.5026
     2.9401   2.9482   2.9540   2.9540   3.0050   3.0884   3.0923   3.0923
     4.0579   4.1741   4.1741   4.9933   5.1124   5.1124   5.1750   5.1750
     5.1775   6.9298   7.2948   7.3447

     occupation numbers 
     1.0000   1.0000   1.0000   1.0000   1.0000   1.0000   1.0000   1.0000
     1.0000   1.0000   1.0000   1.0000   1.0000   1.0000   1.0000   1.0000
     1.0000   1.0000   1.0000   1.0000   1.0000   1.0000   1.0000   1.0000
     1.0000   1.0000   1.0000   1.0000   1.0000   1.0000   1.0000   1.0000
     1.0000   1.0000   1.0000   1.0000

          k = 0.0000 0.0833 0.1667 (  3491 PWs)   bands (ev):

   -10.7028  -9.9241  -9.8762  -9.8620   1.1182   1.1917   1.2144   1.5304
     1.6437   1.6506   2.3766   2.4008   2.4165   2.4367   2.4732   2.5069
     2.8983   2.9259   2.9547   3.0188   3.0663   3.0778   3.0793   3.0867
     3.9283   4.0668   4.3459   4.8766   4.9868   5.2149   5.2397   5.2520
     5.3180   6.6006   7.1923   7.2754

     occupation numbers 
     1.0000   1.0000   1.0000   1.0000   1.0000   1.0000   1.0000   1.0000
     1.0000   1.0000   1.0000   1.0000   1.0000   1.0000   1.0000   1.0000
     1.0000   1.0000   1.0000   1.0000   1.0000   1.0000   1.0000   1.0000
     1.0000   1.0000   1.0000   1.0000   1.0000   1.0000   1.0000   1.0000
     1.0000   1.0000   1.0000   1.0000

          k = 0.0000 0.0833 0.2500 (  3488 PWs)   bands (ev):

   -10.6336  -9.9976  -9.8739  -9.8623   1.1193   1.3002   1.3180   1.4591
     1.6897   1.6953   2.2704   2.2956   2.3615   2.3915   2.4753   2.5078
     2.8464   2.9023   2.9672   3.0346   3.0368   3.0765   3.1220   3.1803
     3.7674   3.9320   4.5768   4.7360   4.8111   5.2597   5.2884   5.4602
     5.5352   6.2662   7.0286   7.1269

     occupation numbers 
     1.0000   1.0000   1.0000   1.0000   1.0000   1.0000   1.0000   1.0000
     1.0000   1.0000   1.0000   1.0000   1.0000   1.0000   1.0000   1.0000
     1.0000   1.0000   1.0000   1.0000   1.0000   1.0000   1.0000   1.0000
     1.0000   1.0000   1.0000   1.0000   1.0000   1.0000   1.0000   1.0000
     1.0000   1.0000   1.0000   1.0000

          k = 0.0000 0.0833 0.3333 (  3487 PWs)   bands (ev):

   -10.5426 -10.0928  -9.8712  -9.8630   1.1328   1.3753   1.4318   1.4424
     1.7547   1.7579   2.1540   2.1747   2.2977   2.3334   2.4788   2.5055
     2.8153   2.8737   2.9838   2.9844   2.9938   3.0618   3.2231   3.3033
     3.6254   3.8055   4.5899   4.6259   4.8342   5.2977   5.3205   5.7143
     5.8018   5.9514   6.8136   6.9200

     occupation numbers 
     1.0000   1.0000   1.0000   1.0000   1.0000   1.0000   1.0000   1.0000
     1.0000   1.0000   1.0000   1.0000   1.0000   1.0000   1.0000   1.0000
     1.0000   1.0000   1.0000   1.0000   1.0000   1.0000   1.0000   1.0000
     1.0000   1.0000   1.0000   1.0000   1.0000   1.0000   1.0000   1.0000
     1.0000   1.0000   1.0000   1.0000

          k = 0.0000 0.0833 0.4167 (  3480 PWs)   bands (ev):

   -10.4357 -10.2028  -9.8685  -9.8643   1.1652   1.2916   1.5543   1.5573
     1.8360   1.8394   2.0383   2.0528   2.2383   2.2655   2.4844   2.5000
     2.8078   2.8440   2.9381   2.9482   3.0031   3.0436   3.3179   3.4073
     3.5493   3.7020   4.4705   4.4795   5.1020   5.3241   5.3364   5.6565
     5.9940   6.0932   6.5598   6.6691

     occupation numbers 
     1.0000   1.0000   1.0000   1.0000   1.0000   1.0000   1.0000   1.0000
     1.0000   1.0000   1.0000   1.0000   1.0000   1.0000   1.0000   1.0000
     1.0000   1.0000   1.0000   1.0000   1.0000   1.0000   1.0000   1.0000
     1.0000   1.0000   1.0000   1.0000   1.0000   1.0000   1.0000   1.0000
     1.0000   1.0000   1.0000   1.0000

          k = 0.0000 0.0833-0.5000 (  3478 PWs)   bands (ev):

   -10.3198 -10.3198  -9.8661  -9.8661   1.2190   1.2190   1.6088   1.6088
     1.9309   1.9309   1.9391   1.9391   2.2201   2.2201   2.4920   2.4920
     2.8197   2.8197   2.9237   2.9237   3.0235   3.0235   3.3914   3.3914
     3.6075   3.6075   4.4223   4.4223   5.3372   5.3372   5.3754   5.3754
     6.2814   6.2814   6.3883   6.3883

     occupation numbers 
     1.0000   1.0000   1.0000   1.0000   1.0000   1.0000   1.0000   1.0000
     1.0000   1.0000   1.0000   1.0000   1.0000   1.0000   1.0000   1.0000
     1.0000   1.0000   1.0000   1.0000   1.0000   1.0000   1.0000   1.0000
     1.0000   1.0000   1.0000   1.0000   1.0000   1.0000   1.0000   1.0000
     1.0000   1.0000   1.0000   1.0000

          k = 0.0000 0.1667 0.1667 (  3489 PWs)   bands (ev):

   -10.6613  -9.9200  -9.9200  -9.8643   1.1878   1.1878   1.2744   1.5033
     1.6567   1.6730   2.3230   2.3230   2.3938   2.4114   2.4114   2.5402
     2.9222   2.9521   2.9521   2.9538   3.0585   3.0783   3.0783   3.1353
     3.7388   4.2262   4.2262   4.7905   5.1316   5.1316   5.3647   5.3702
     5.3702   6.3144   7.0852   7.2850

     occupation numbers 
     1.0000   1.0000   1.0000   1.0000   1.0000   1.0000   1.0000   1.0000
     1.0000   1.0000   1.0000   1.0000   1.0000   1.0000   1.0000   1.0000
     1.0000   1.0000   1.0000   1.0000   1.0000   1.0000   1.0000   1.0000
     1.0000   1.0000   1.0000   1.0000   1.0000   1.0000   1.0000   1.0000
     1.0000   1.0000   1.0000   1.0000

          k = 0.0000 0.1667 0.2500 (  3492 PWs)   bands (ev):

   -10.5950  -9.9894  -9.9136  -9.8681   1.1865   1.2978   1.3665   1.4508
     1.6939   1.7107   2.2139   2.2511   2.3058   2.3410   2.4299   2.5767
     2.8910   2.9055   2.9643   3.0001   3.0262   3.0733   3.0785   3.2265
     3.5169   4.0703   4.4359   4.7096   4.9654   5.3410   5.4300   5.4650
     5.6084   6.0070   6.9153   7.1956

     occupation numbers 
     1.0000   1.0000   1.0000   1.0000   1.0000   1.0000   1.0000   1.0000
     1.0000   1.0000   1.0000   1.0000   1.0000   1.0000   1.0000   1.0000
     1.0000   1.0000   1.0000   1.0000   1.0000   1.0000   1.0000   1.0000
     1.0000   1.0000   1.0000   1.0000   1.0000   1.0000   1.0000   1.0000
     1.0000   1.0000   1.0000   1.0000

          k = 0.0000 0.1667 0.3333 (  3481 PWs)   bands (ev):

   -10.5079 -10.0796  -9.9057  -9.8735   1.1944   1.3841   1.4353   1.4771
     1.7540   1.7641   2.1042   2.1733   2.1806   2.2731   2.4586   2.6115
     2.8515   2.8819   2.9511   2.9822   2.9853   3.0623   3.1232   3.3147
     3.3763   3.9103   4.6376   4.6689   4.7939   5.4835   5.5262   5.5925
     5.7106   5.8987   6.6942   7.0239

     occupation numbers 
     1.0000   1.0000   1.0000   1.0000   1.0000   1.0000   1.0000   1.0000
     1.0000   1.0000   1.0000   1.0000   1.0000   1.0000   1.0000   1.0000
     1.0000   1.0000   1.0000   1.0000   1.0000   1.0000   1.0000   1.0000
     1.0000   1.0000   1.0000   1.0000   1.0000   1.0000   1.0000   1.0000
     1.0000   1.0000   1.0000   1.0000

          k = 0.0000 0.1667 0.4167 (  3475 PWs)   bands (ev):

   -10.4058 -10.1840  -9.8970  -9.8804   1.2174   1.3164   1.5691   1.5815
     1.8272   1.8391   2.0013   2.0545   2.1105   2.1864   2.5015   2.6154
     2.8358   2.8577   2.8735   2.9351   3.0034   3.0456   3.1743   3.2548
     3.4861   3.7623   4.5889   4.6581   4.9136   5.4313   5.5244   5.5516
     5.8693   6.2089   6.4359   6.7905

     occupation numbers 
     1.0000   1.0000   1.0000   1.0000   1.0000   1.0000   1.0000   1.0000
     1.0000   1.0000   1.0000   1.0000   1.0000   1.0000   1.0000   1.0000
     1.0000   1.0000   1.0000   1.0000   1.0000   1.0000   1.0000   1.0000
     1.0000   1.0000   1.0000   1.0000   1.0000   1.0000   1.0000   1.0000
     1.0000   1.0000   1.0000   1.0000

          k = 0.0000 0.1667-0.5000 (  3478 PWs)   bands (ev):

   -10.2954 -10.2954  -9.8884  -9.8884   1.2587   1.2587   1.6308   1.6308
     1.9085   1.9085   1.9386   1.9386   2.1102   2.1102   2.5613   2.5613
     2.8400   2.8400   2.8814   2.8814   3.0252   3.0252   3.2138   3.2138
     3.6231   3.6231   4.5886   4.5886   5.1670   5.1670   5.5486   5.5486
     6.1557   6.1557   6.5131   6.5131

     occupation numbers 
     1.0000   1.0000   1.0000   1.0000   1.0000   1.0000   1.0000   1.0000
     1.0000   1.0000   1.0000   1.0000   1.0000   1.0000   1.0000   1.0000
     1.0000   1.0000   1.0000   1.0000   1.0000   1.0000   1.0000   1.0000
     1.0000   1.0000   1.0000   1.0000   1.0000   1.0000   1.0000   1.0000
     1.0000   1.0000   1.0000   1.0000

          k = 0.0000 0.2500 0.2500 (  3487 PWs)   bands (ev):

   -10.5334  -9.9767  -9.9767  -9.8777   1.2955   1.2955   1.4295   1.4404
     1.7155   1.7366   2.1385   2.1385   2.2892   2.3235   2.3235   2.6518
     2.9015   2.9368   2.9368   2.9694   3.0183   3.0715   3.0715   3.1537
     3.3649   4.2522   4.2522   4.6862   5.1750   5.1750   5.6334   5.6907
     5.6907   5.7180   6.7376   7.1802

     occupation numbers 
     1.0000   1.0000   1.0000   1.0000   1.0000   1.0000   1.0000   1.0000
     1.0000   1.0000   1.0000   1.0000   1.0000   1.0000   1.0000   1.0000
     1.0000   1.0000   1.0000   1.0000   1.0000   1.0000   1.0000   1.0000
     1.0000   1.0000   1.0000   1.0000   1.0000   1.0000   1.0000   1.0000
     1.0000   1.0000   1.0000   1.0000

          k = 0.0000 0.2500 0.3333 (  3484 PWs)   bands (ev):

   -10.4527 -10.0589  -9.9607  -9.8906   1.2967   1.3958   1.4381   1.5297
     1.7619   1.7745   2.0365   2.0578   2.1900   2.2243   2.3509   2.7249
     2.8576   2.8885   2.8908   2.9564   2.9859   3.0514   3.0649   3.0760
     3.4469   4.0577   4.4588   4.6736   4.9985   5.4189   5.4349   5.7544
     5.7627   6.0015   6.5095   7.0694

     occupation numbers 
     1.0000   1.0000   1.0000   1.0000   1.0000   1.0000   1.0000   1.0000
     1.0000   1.0000   1.0000   1.0000   1.0000   1.0000   1.0000   1.0000
     1.0000   1.0000   1.0000   1.0000   1.0000   1.0000   1.0000   1.0000
     1.0000   1.0000   1.0000   1.0000   1.0000   1.0000   1.0000   1.0000
     1.0000   1.0000   1.0000   1.0000

          k = 0.0000 0.2500 0.4167 (  3472 PWs)   bands (ev):

   -10.3584 -10.1545  -9.9426  -9.9064   1.3059   1.3584   1.5885   1.6176
     1.8180   1.8400   1.9498   1.9950   2.0566   2.1278   2.3938   2.6080
     2.8248   2.8676   2.8729   2.9391   3.0085   3.0514   3.0630   3.0823
     3.5669   3.8733   4.6816   4.6856   4.8455   5.1680   5.6869   5.8142
     5.8201   6.2473   6.3221   6.8772

     occupation numbers 
     1.0000   1.0000   1.0000   1.0000   1.0000   1.0000   1.0000   1.0000
     1.0000   1.0000   1.0000   1.0000   1.0000   1.0000   1.0000   1.0000
     1.0000   1.0000   1.0000   1.0000   1.0000   1.0000   1.0000   1.0000
     1.0000   1.0000   1.0000   1.0000   1.0000   1.0000   1.0000   1.0000
     1.0000   1.0000   1.0000   1.0000

          k = 0.0000 0.2500-0.5000 (  3476 PWs)   bands (ev):

   -10.2566 -10.2566  -9.9241  -9.9241   1.3266   1.3266   1.6633   1.6633
     1.8777   1.8777   1.9376   1.9376   2.0159   2.0159   2.4684   2.4684
     2.8635   2.8635   2.8914   2.8914   3.0316   3.0316   3.0773   3.0773
     3.7091   3.7091   4.7393   4.7393   4.9176   4.9176   5.8366   5.8366
     5.9678   5.9678   6.6217   6.6217

     occupation numbers 
     1.0000   1.0000   1.0000   1.0000   1.0000   1.0000   1.0000   1.0000
     1.0000   1.0000   1.0000   1.0000   1.0000   1.0000   1.0000   1.0000
     1.0000   1.0000   1.0000   1.0000   1.0000   1.0000   1.0000   1.0000
     1.0000   1.0000   1.0000   1.0000   1.0000   1.0000   1.0000   1.0000
     1.0000   1.0000   1.0000   1.0000

          k = 0.0000 0.3333 0.3333 (  3479 PWs)   bands (ev):

   -10.3807 -10.0325 -10.0325  -9.9134   1.4072   1.4373   1.4373   1.5942
     1.7897   1.7900   1.9632   1.9632   2.1767   2.2031   2.2031   2.5939
     2.8368   2.8876   2.9176   2.9176   2.9753   3.0003   3.0683   3.0683
     3.5504   4.2376   4.2376   4.7167   5.1618   5.2258   5.2258   5.9437
     6.0837   6.0837   6.2768   7.0251

     occupation numbers 
     1.0000   1.0000   1.0000   1.0000   1.0000   1.0000   1.0000   1.0000
     1.0000   1.0000   1.0000   1.0000   1.0000   1.0000   1.0000   1.0000
     1.0000   1.0000   1.0000   1.0000   1.0000   1.0000   1.0000   1.0000
     1.0000   1.0000   1.0000   1.0000   1.0000   1.0000   1.0000   1.0000
     1.0000   1.0000   1.0000   1.0000

          k = 0.0000 0.3333 0.4167 (  3480 PWs)   bands (ev):

   -10.2967 -10.1164 -10.0025  -9.9408   1.4165   1.4321   1.6021   1.6608
     1.8125   1.8469   1.8932   1.9025   2.0584   2.0904   2.2221   2.3585
     2.8826   2.8919   2.9100   2.9277   2.9839   3.0223   3.0605   3.0626
     3.6787   4.0257   4.4413   4.7854   4.9039   5.0431   5.4755   6.0150
     6.0697   6.1304   6.3993   6.8902

     occupation numbers 
     1.0000   1.0000   1.0000   1.0000   1.0000   1.0000   1.0000   1.0000
     1.0000   1.0000   1.0000   1.0000   1.0000   1.0000   1.0000   1.0000
     1.0000   1.0000   1.0000   1.0000   1.0000   1.0000   1.0000   1.0000
     1.0000   1.0000   1.0000   1.0000   1.0000   1.0000   1.0000   1.0000
     1.0000   1.0000   1.0000   1.0000

          k = 0.0000 0.3333-0.5000 (  3462 PWs)   bands (ev):

   -10.2065 -10.2065  -9.9712  -9.9712   1.4247   1.4247   1.6994   1.6994
     1.8453   1.8453   1.9372   1.9372   1.9383   1.9383   2.2573   2.2573
     2.8819   2.8819   2.9266   2.9266   3.0326   3.0326   3.0445   3.0445
     3.8370   3.8370   4.6638   4.6638   4.8930   4.8930   5.7426   5.7426
     6.1294   6.1294   6.6760   6.6760

     occupation numbers 
     1.0000   1.0000   1.0000   1.0000   1.0000   1.0000   1.0000   1.0000
     1.0000   1.0000   1.0000   1.0000   1.0000   1.0000   1.0000   1.0000
     1.0000   1.0000   1.0000   1.0000   1.0000   1.0000   1.0000   1.0000
     1.0000   1.0000   1.0000   1.0000   1.0000   1.0000   1.0000   1.0000
     1.0000   1.0000   1.0000   1.0000

          k = 0.0000 0.4167 0.4167 (  3468 PWs)   bands (ev):

   -10.2251 -10.0727 -10.0727  -9.9818   1.4856   1.5941   1.5941   1.7058
     1.8111   1.8418   1.8418   1.8744   2.0599   2.0599   2.0679   2.0871
     2.8872   2.9067   2.9067   2.9350   3.0049   3.0418   3.0652   3.0652
     3.8233   4.2109   4.2109   4.6533   4.9101   5.2626   5.2626   5.7609
     6.2611   6.4224   6.4224   6.8169

     occupation numbers 
     1.0000   1.0000   1.0000   1.0000   1.0000   1.0000   1.0000   1.0000
     1.0000   1.0000   1.0000   1.0000   1.0000   1.0000   1.0000   1.0000
     1.0000   1.0000   1.0000   1.0000   1.0000   1.0000   1.0000   1.0000
     1.0000   1.0000   1.0000   1.0000   1.0000   1.0000   1.0000   1.0000
     1.0000   1.0000   1.0000   1.0000

          k = 0.0000 0.4167-0.5000 (  3476 PWs)   bands (ev):

   -10.1487 -10.1487 -10.0268 -10.0268   1.5520   1.5520   1.7291   1.7291
     1.8159   1.8159   1.8620   1.8621   1.9415   1.9415   2.0629   2.0629
     2.8931   2.8931   2.9185   2.9185   3.0505   3.0505   3.0586   3.0586
     4.0020   4.0020   4.4215   4.4215   5.0698   5.0698   5.5048   5.5048
     6.3789   6.3789   6.6576   6.6576

     occupation numbers 
     1.0000   1.0000   1.0000   1.0000   1.0000   1.0000   1.0000   1.0000
     1.0000   1.0000   1.0000   1.0000   1.0000   1.0000   1.0000   1.0000
     1.0000   1.0000   1.0000   1.0000   1.0000   1.0000   1.0000   1.0000
     1.0000   1.0000   1.0000   1.0000   1.0000   1.0000   1.0000   1.0000
     1.0000   1.0000   1.0000   1.0000

          k = 0.0000-0.5000-0.5000 (  3468 PWs)   bands (ev):

   -10.0873 -10.0873 -10.0873 -10.0873   1.6907   1.6907   1.6907   1.6907
     1.7995   1.7995   1.7995   1.7996   1.9671   1.9671   1.9671   1.9671
     2.9037   2.9037   2.9037   2.9037   3.0636   3.0636   3.0636   3.0636
     4.1989   4.1989   4.1989   4.1989   5.2756   5.2756   5.2756   5.2756
     6.5586   6.5586   6.5586   6.5586

     occupation numbers 
     1.0000   1.0000   1.0000   1.0000   1.0000   1.0000   1.0000   1.0000
     1.0000   1.0000   1.0000   1.0000   1.0000   1.0000   1.0000   1.0000
     1.0000   1.0000   1.0000   1.0000   1.0000   1.0000   1.0000   1.0000
     1.0000   1.0000   1.0000   1.0000   1.0000   1.0000   1.0000   1.0000
     1.0000   1.0000   1.0000   1.0000

          k = 0.0833 0.0833 0.0833 (  3482 PWs)   bands (ev):

   -10.7316  -9.8775  -9.8775  -9.8775   1.1450   1.1450   1.1450   1.5647
     1.6276   1.6276   2.4442   2.4442   2.4442   2.4717   2.4717   2.4717
     2.9430   2.9430   2.9782   2.9782   2.9782   3.0875   3.0875   3.0875
     4.1227   4.1228   4.1228   5.0501   5.0501   5.0501   5.2232   5.2232
     5.2232   6.7709   7.3116   7.3116

     occupation numbers 
     1.0000   1.0000   1.0000   1.0000   1.0000   1.0000   1.0000   1.0000
     1.0000   1.0000   1.0000   1.0000   1.0000   1.0000   1.0000   1.0000
     1.0000   1.0000   1.0000   1.0000   1.0000   1.0000   1.0000   1.0000
     1.0000   1.0000   1.0000   1.0000   1.0000   1.0000   1.0000   1.0000
     1.0000   1.0000   1.0000   1.0000

          k = 0.0833 0.0833 0.1667 (  3486 PWs)   bands (ev):

   -10.6889  -9.9229  -9.8766  -9.8766   1.1412   1.2125   1.2125   1.5234
     1.6493   1.6542   2.3725   2.3890   2.4049   2.4049   2.4780   2.4780
     2.9202   2.9279   2.9516   3.0394   3.0394   3.0754   3.0754   3.0836
     3.9906   3.9906   4.2899   4.9410   4.9410   5.2101   5.2849   5.2849
     5.3533   6.4688   7.2143   7.2594

     occupation numbers 
     1.0000   1.0000   1.0000   1.0000   1.0000   1.0000   1.0000   1.0000
     1.0000   1.0000   1.0000   1.0000   1.0000   1.0000   1.0000   1.0000
     1.0000   1.0000   1.0000   1.0000   1.0000   1.0000   1.0000   1.0000
     1.0000   1.0000   1.0000   1.0000   1.0000   1.0000   1.0000   1.0000
     1.0000   1.0000   1.0000   1.0000

          k = 0.0833 0.0833 0.2500 (  3489 PWs)   bands (ev):

   -10.6206  -9.9950  -9.8756  -9.8756   1.1413   1.3172   1.3172   1.4568
     1.6917   1.6986   2.2714   2.2769   2.3476   2.3476   2.4907   2.4907
     2.8650   2.9048   2.9649   3.0336   3.0336   3.0750   3.1404   3.1404
     3.8252   3.8252   4.5119   4.8082   4.8082   5.3366   5.3366   5.4484
     5.5505   6.1492   7.0583   7.1173

     occupation numbers 
     1.0000   1.0000   1.0000   1.0000   1.0000   1.0000   1.0000   1.0000
     1.0000   1.0000   1.0000   1.0000   1.0000   1.0000   1.0000   1.0000
     1.0000   1.0000   1.0000   1.0000   1.0000   1.0000   1.0000   1.0000
     1.0000   1.0000   1.0000   1.0000   1.0000   1.0000   1.0000   1.0000
     1.0000   1.0000   1.0000   1.0000

          k = 0.0833 0.0833 0.3333 (  3488 PWs)   bands (ev):

   -10.5310 -10.0885  -9.8745  -9.8745   1.1527   1.3780   1.4440   1.4440
     1.7532   1.7607   2.1553   2.1572   2.2783   2.2783   2.5076   2.5076
     2.8301   2.8775   2.9824   2.9835   2.9835   3.0615   3.2413   3.2413
     3.6748   3.6748   4.6722   4.6722   4.7586   5.3736   5.3736   5.7360
     5.7940   5.8433   6.8527   6.9080

     occupation numbers 
     1.0000   1.0000   1.0000   1.0000   1.0000   1.0000   1.0000   1.0000
     1.0000   1.0000   1.0000   1.0000   1.0000   1.0000   1.0000   1.0000
     1.0000   1.0000   1.0000   1.0000   1.0000   1.0000   1.0000   1.0000
     1.0000   1.0000   1.0000   1.0000   1.0000   1.0000   1.0000   1.0000
     1.0000   1.0000   1.0000   1.0000

          k = 0.0833 0.0833 0.4167 (  3473 PWs)   bands (ev):

   -10.4257 -10.1966  -9.8737  -9.8737   1.1819   1.2992   1.5627   1.5627
     1.8321   1.8400   2.0364   2.0421   2.2080   2.2080   2.5251   2.5251
     2.8191   2.8496   2.9286   2.9286   3.0026   3.0438   3.3317   3.3317
     3.5704   3.5704   4.5654   4.5654   5.0163   5.3954   5.3954   5.5552
     6.0460   6.0636   6.6090   6.6491

     occupation numbers 
     1.0000   1.0000   1.0000   1.0000   1.0000   1.0000   1.0000   1.0000
     1.0000   1.0000   1.0000   1.0000   1.0000   1.0000   1.0000   1.0000
     1.0000   1.0000   1.0000   1.0000   1.0000   1.0000   1.0000   1.0000
     1.0000   1.0000   1.0000   1.0000   1.0000   1.0000   1.0000   1.0000
     1.0000   1.0000   1.0000   1.0000

          k = 0.0833 0.0833-0.5000 (  3472 PWs)   bands (ev):

   -10.3117 -10.3117  -9.8734  -9.8734   1.2314   1.2314   1.6165   1.6165
     1.9273   1.9273   1.9346   1.9346   2.1733   2.1733   2.5333   2.5333
     2.8277   2.8277   2.9033   2.9033   3.0235   3.0235   3.3749   3.3749
     3.5281   3.5281   4.5239   4.5239   5.2810   5.2810   5.4026   5.4026
     6.3408   6.3409   6.3565   6.3565

     occupation numbers 
     1.0000   1.0000   1.0000   1.0000   1.0000   1.0000   1.0000   1.0000
     1.0000   1.0000   1.0000   1.0000   1.0000   1.0000   1.0000   1.0000
     1.0000   1.0000   1.0000   1.0000   1.0000   1.0000   1.0000   1.0000
     1.0000   1.0000   1.0000   1.0000   1.0000   1.0000   1.0000   1.0000
     1.0000   1.0000   1.0000   1.0000

          k = 0.0833 0.1667 0.1667 (  3486 PWs)   bands (ev):

   -10.6480  -9.9195  -9.9195  -9.8780   1.2085   1.2086   1.2729   1.4966
     1.6640   1.6752   2.3235   2.3235   2.3700   2.3982   2.3982   2.4955
     2.9261   2.9495   2.9731   2.9731   3.0612   3.0753   3.0753   3.0999
     3.8019   4.1465   4.1465   4.8690   5.1176   5.1176   5.4028   5.4162
     5.4162   6.1964   7.1301   7.2553

     occupation numbers 
     1.0000   1.0000   1.0000   1.0000   1.0000   1.0000   1.0000   1.0000
     1.0000   1.0000   1.0000   1.0000   1.0000   1.0000   1.0000   1.0000
     1.0000   1.0000   1.0000   1.0000   1.0000   1.0000   1.0000   1.0000
     1.0000   1.0000   1.0000   1.0000   1.0000   1.0000   1.0000   1.0000
     1.0000   1.0000   1.0000   1.0000

          k = 0.0833 0.1667 0.2500 (  3492 PWs)   bands (ev):

   -10.5827  -9.9876  -9.9144  -9.8805   1.2065   1.3148   1.3660   1.4475
     1.6985   1.7129   2.2175   2.2512   2.2861   2.3149   2.4214   2.5264
     2.9095   2.9095   2.9614   3.0127   3.0305   3.0714   3.0827   3.1818
     3.5820   3.9642   4.3498   4.7995   4.9948   5.3676   5.4800   5.5006
     5.6223   5.8960   6.9714   7.1688

     occupation numbers 
     1.0000   1.0000   1.0000   1.0000   1.0000   1.0000   1.0000   1.0000
     1.0000   1.0000   1.0000   1.0000   1.0000   1.0000   1.0000   1.0000
     1.0000   1.0000   1.0000   1.0000   1.0000   1.0000   1.0000   1.0000
     1.0000   1.0000   1.0000   1.0000   1.0000   1.0000   1.0000   1.0000
     1.0000   1.0000   1.0000   1.0000

          k = 0.0833 0.1667 0.3333 (  3487 PWs)   bands (ev):

   -10.4970 -10.0761  -9.9081  -9.8841   1.2124   1.3853   1.4475   1.4788
     1.7534   1.7671   2.1069   2.1627   2.1706   2.2413   2.4568   2.5658
     2.8664   2.8866   2.9613   2.9803   2.9838   3.0614   3.1378   3.2649
     3.4228   3.7869   4.5759   4.7379   4.8661   5.5330   5.5626   5.6030
     5.6518   5.8864   6.7609   6.9972

     occupation numbers 
     1.0000   1.0000   1.0000   1.0000   1.0000   1.0000   1.0000   1.0000
     1.0000   1.0000   1.0000   1.0000   1.0000   1.0000   1.0000   1.0000
     1.0000   1.0000   1.0000   1.0000   1.0000   1.0000   1.0000   1.0000
     1.0000   1.0000   1.0000   1.0000   1.0000   1.0000   1.0000   1.0000
     1.0000   1.0000   1.0000   1.0000

          k = 0.0833 0.1667 0.4167 (  3467 PWs)   bands (ev):

   -10.3965 -10.1786  -9.9013  -9.8889   1.2324   1.3227   1.5772   1.5866
     1.8242   1.8400   2.0021   2.0422   2.1001   2.1535   2.5063   2.5927
     2.8472   2.8640   2.8775   2.9244   3.0024   3.0453   3.1912   3.2677
     3.4313   3.6411   4.6988   4.7604   4.8149   5.3261   5.5710   5.5905
     5.9452   6.1835   6.5112   6.7621

     occupation numbers 
     1.0000   1.0000   1.0000   1.0000   1.0000   1.0000   1.0000   1.0000
     1.0000   1.0000   1.0000   1.0000   1.0000   1.0000   1.0000   1.0000
     1.0000   1.0000   1.0000   1.0000   1.0000   1.0000   1.0000   1.0000
     1.0000   1.0000   1.0000   1.0000   1.0000   1.0000   1.0000   1.0000
     1.0000   1.0000   1.0000   1.0000

          k = 0.0833 0.1667-0.5000 (  3474 PWs)   bands (ev):

   -10.2879 -10.2879  -9.8947  -9.8947   1.2696   1.2696   1.6381   1.6381
     1.9072   1.9072   1.9328   1.9328   2.0862   2.0862   2.5646   2.5646
     2.8485   2.8485   2.8682   2.8682   3.0248   3.0248   3.2311   3.2311
     3.5263   3.5263   4.7021   4.7021   5.0644   5.0644   5.5913   5.5913
     6.2352   6.2352   6.4839   6.4839

     occupation numbers 
     1.0000   1.0000   1.0000   1.0000   1.0000   1.0000   1.0000   1.0000
     1.0000   1.0000   1.0000   1.0000   1.0000   1.0000   1.0000   1.0000
     1.0000   1.0000   1.0000   1.0000   1.0000   1.0000   1.0000   1.0000
     1.0000   1.0000   1.0000   1.0000   1.0000   1.0000   1.0000   1.0000
     1.0000   1.0000   1.0000   1.0000

          k = 0.0833 0.2500 0.2500 (  3496 PWs)   bands (ev):

   -10.5221  -9.9761  -9.9761  -9.8886   1.3120   1.3120   1.4266   1.4409
     1.7200   1.7386   2.1420   2.1420   2.2691   2.3059   2.3059   2.5697
     2.9069   2.9542   2.9542   2.9663   3.0246   3.0700   3.0700   3.1792
     3.3732   4.1449   4.1449   4.7896   5.2396   5.2396   5.6087   5.6620
     5.7094   5.7094   6.8062   7.1559

     occupation numbers 
     1.0000   1.0000   1.0000   1.0000   1.0000   1.0000   1.0000   1.0000
     1.0000   1.0000   1.0000   1.0000   1.0000   1.0000   1.0000   1.0000
     1.0000   1.0000   1.0000   1.0000   1.0000   1.0000   1.0000   1.0000
     1.0000   1.0000   1.0000   1.0000   1.0000   1.0000   1.0000   1.0000
     1.0000   1.0000   1.0000   1.0000

          k = 0.0833 0.2500 0.3333 (  3478 PWs)   bands (ev):

   -10.4428 -10.0566  -9.9616  -9.8997   1.3117   1.3957   1.4500   1.5320
     1.7628   1.7774   2.0397   2.0601   2.1731   2.2036   2.3357   2.5985
     2.8945   2.9058   2.9376   2.9679   2.9837   3.0636   3.0802   3.0893
     3.3983   3.9380   4.3498   4.7887   5.0965   5.3255   5.5066   5.7795
     5.7847   5.9982   6.5899   7.0474

     occupation numbers 
     1.0000   1.0000   1.0000   1.0000   1.0000   1.0000   1.0000   1.0000
     1.0000   1.0000   1.0000   1.0000   1.0000   1.0000   1.0000   1.0000
     1.0000   1.0000   1.0000   1.0000   1.0000   1.0000   1.0000   1.0000
     1.0000   1.0000   1.0000   1.0000   1.0000   1.0000   1.0000   1.0000
     1.0000   1.0000   1.0000   1.0000

          k = 0.0833 0.2500 0.4167 (  3468 PWs)   bands (ev):

   -10.3502 -10.1501  -9.9455  -9.9134   1.3181   1.3623   1.5956   1.6221
     1.8170   1.8404   1.9514   1.9926   2.0447   2.1066   2.3801   2.5465
     2.8606   2.8793   2.8801   2.9419   3.0070   3.0504   3.0887   3.0945
     3.4918   3.7558   4.5713   4.8103   4.9657   5.0578   5.7840   5.8374
     5.8439   6.3074   6.3378   6.8563

     occupation numbers 
     1.0000   1.0000   1.0000   1.0000   1.0000   1.0000   1.0000   1.0000
     1.0000   1.0000   1.0000   1.0000   1.0000   1.0000   1.0000   1.0000
     1.0000   1.0000   1.0000   1.0000   1.0000   1.0000   1.0000   1.0000
     1.0000   1.0000   1.0000   1.0000   1.0000   1.0000   1.0000   1.0000
     1.0000   1.0000   1.0000   1.0000

          k = 0.0833 0.2500-0.5000 (  3478 PWs)   bands (ev):

   -10.2503 -10.2503  -9.9290  -9.9290   1.3349   1.3349   1.6695   1.6695
     1.8779   1.8779   1.9318   1.9318   2.0023   2.0023   2.4489   2.4489
     2.8726   2.8726   2.8937   2.8937   3.0306   3.0306   3.0964   3.0964
     3.6089   3.6089   4.8069   4.8070   4.8675   4.8675   5.8600   5.8600
     6.0646   6.0646   6.6023   6.6023

     occupation numbers 
     1.0000   1.0000   1.0000   1.0000   1.0000   1.0000   1.0000   1.0000
     1.0000   1.0000   1.0000   1.0000   1.0000   1.0000   1.0000   1.0000
     1.0000   1.0000   1.0000   1.0000   1.0000   1.0000   1.0000   1.0000
     1.0000   1.0000   1.0000   1.0000   1.0000   1.0000   1.0000   1.0000
     1.0000   1.0000   1.0000   1.0000

          k = 0.0833 0.3333 0.3333 (  3471 PWs)   bands (ev):

   -10.3722 -10.0317 -10.0317  -9.9207   1.4067   1.4480   1.4480   1.5971
     1.7908   1.7927   1.9662   1.9662   2.1605   2.1874   2.1874   2.4993
     2.8948   2.9178   2.9314   2.9314   2.9839   2.9983   3.0681   3.0681
     3.4817   4.1195   4.1195   4.8435   5.0497   5.3388   5.3388   5.9623
     6.0873   6.0873   6.3707   7.0077

     occupation numbers 
     1.0000   1.0000   1.0000   1.0000   1.0000   1.0000   1.0000   1.0000
     1.0000   1.0000   1.0000   1.0000   1.0000   1.0000   1.0000   1.0000
     1.0000   1.0000   1.0000   1.0000   1.0000   1.0000   1.0000   1.0000
     1.0000   1.0000   1.0000   1.0000   1.0000   1.0000   1.0000   1.0000
     1.0000   1.0000   1.0000   1.0000

          k = 0.0833 0.3333 0.4167 (  3478 PWs)   bands (ev):

   -10.2899 -10.1136 -10.0035  -9.9461   1.4178   1.4403   1.6077   1.6648
     1.8145   1.8457   1.8956   1.9035   2.0471   2.0753   2.2069   2.3256
     2.8907   2.9035   2.9256   2.9384   3.0012   3.0206   3.0594   3.0658
     3.5908   3.9083   4.3238   4.7893   4.9206   5.1735   5.5929   6.0843
     6.1207   6.1387   6.3931   6.8759

     occupation numbers 
     1.0000   1.0000   1.0000   1.0000   1.0000   1.0000   1.0000   1.0000
     1.0000   1.0000   1.0000   1.0000   1.0000   1.0000   1.0000   1.0000
     1.0000   1.0000   1.0000   1.0000   1.0000   1.0000   1.0000   1.0000
     1.0000   1.0000   1.0000   1.0000   1.0000   1.0000   1.0000   1.0000
     1.0000   1.0000   1.0000   1.0000

          k = 0.0833 0.3333-0.5000 (  3468 PWs)   bands (ev):

   -10.2017 -10.2017  -9.9743  -9.9743   1.4294   1.4294   1.7041   1.7041
     1.8471   1.8471   1.9307   1.9307   1.9313   1.9313   2.2403   2.2403
     2.8912   2.8912   2.9342   2.9342   3.0426   3.0426   3.0430   3.0430
     3.7309   3.7309   4.5474   4.5474   5.0305   5.0305   5.8568   5.8568
     6.1410   6.1410   6.6647   6.6647

     occupation numbers 
     1.0000   1.0000   1.0000   1.0000   1.0000   1.0000   1.0000   1.0000
     1.0000   1.0000   1.0000   1.0000   1.0000   1.0000   1.0000   1.0000
     1.0000   1.0000   1.0000   1.0000   1.0000   1.0000   1.0000   1.0000
     1.0000   1.0000   1.0000   1.0000   1.0000   1.0000   1.0000   1.0000
     1.0000   1.0000   1.0000   1.0000

          k = 0.0833 0.4167 0.4167 (  3476 PWs)   bands (ev):

   -10.2201 -10.0718 -10.0718  -9.9850   1.4853   1.5971   1.5971   1.7092
     1.8150   1.8447   1.8447   1.8712   2.0490   2.0490   2.0559   2.0722
     2.8959   2.9174   2.9174   2.9447   3.0131   3.0403   3.0651   3.0651
     3.7218   4.0925   4.0925   4.5358   5.0513   5.3952   5.3952   5.8799
     6.2699   6.4222   6.4222   6.8074

     occupation numbers 
     1.0000   1.0000   1.0000   1.0000   1.0000   1.0000   1.0000   1.0000
     1.0000   1.0000   1.0000   1.0000   1.0000   1.0000   1.0000   1.0000
     1.0000   1.0000   1.0000   1.0000   1.0000   1.0000   1.0000   1.0000
     1.0000   1.0000   1.0000   1.0000   1.0000   1.0000   1.0000   1.0000
     1.0000   1.0000   1.0000   1.0000

          k = 0.0833 0.4167-0.5000 (  3476 PWs)   bands (ev):

   -10.1457 -10.1457 -10.0279 -10.0279   1.5522   1.5522   1.7301   1.7301
     1.8200   1.8200   1.8601   1.8601   1.9355   1.9355   2.0517   2.0517
     2.9027   2.9027   2.9284   2.9284   3.0529   3.0529   3.0575   3.0575
     3.8893   3.8893   4.3027   4.3027   5.2105   5.2105   5.6333   5.6333
     6.3832   6.3832   6.6523   6.6523

     occupation numbers 
     1.0000   1.0000   1.0000   1.0000   1.0000   1.0000   1.0000   1.0000
     1.0000   1.0000   1.0000   1.0000   1.0000   1.0000   1.0000   1.0000
     1.0000   1.0000   1.0000   1.0000   1.0000   1.0000   1.0000   1.0000
     1.0000   1.0000   1.0000   1.0000   1.0000   1.0000   1.0000   1.0000
     1.0000   1.0000   1.0000   1.0000

          k = 0.0833-0.5000-0.5000 (  3504 PWs)   bands (ev):

   -10.0863 -10.0863 -10.0863 -10.0863   1.6856   1.6856   1.6856   1.6856
     1.8060   1.8060   1.8060   1.8060   1.9594   1.9594   1.9594   1.9594
     2.9133   2.9133   2.9133   2.9133   3.0634   3.0634   3.0634   3.0634
     4.0814   4.0814   4.0814   4.0814   5.4132   5.4132   5.4132   5.4132
     6.5579   6.5580   6.5580   6.5580

     occupation numbers 
     1.0000   1.0000   1.0000   1.0000   1.0000   1.0000   1.0000   1.0000
     1.0000   1.0000   1.0000   1.0000   1.0000   1.0000   1.0000   1.0000
     1.0000   1.0000   1.0000   1.0000   1.0000   1.0000   1.0000   1.0000
     1.0000   1.0000   1.0000   1.0000   1.0000   1.0000   1.0000   1.0000
     1.0000   1.0000   1.0000   1.0000

          k = 0.1667 0.1667 0.1667 (  3488 PWs)   bands (ev):

   -10.6089  -9.9183  -9.9183  -9.9183   1.2691   1.2691   1.2691   1.4748
     1.6858   1.6858   2.3055   2.3055   2.3055   2.3841   2.3841   2.3841
     2.9375   2.9375   3.0264   3.0264   3.0264   3.0658   3.0658   3.0658
     3.9537   3.9537   3.9537   5.0822   5.0822   5.0822   5.5126   5.5126
     5.5126   5.9398   7.1679   7.1679

     occupation numbers 
     1.0000   1.0000   1.0000   1.0000   1.0000   1.0000   1.0000   1.0000
     1.0000   1.0000   1.0000   1.0000   1.0000   1.0000   1.0000   1.0000
     1.0000   1.0000   1.0000   1.0000   1.0000   1.0000   1.0000   1.0000
     1.0000   1.0000   1.0000   1.0000   1.0000   1.0000   1.0000   1.0000
     1.0000   1.0000   1.0000   1.0000

          k = 0.1667 0.1667 0.2500 (  3488 PWs)   bands (ev):

   -10.5465  -9.9824  -9.9167  -9.9167   1.2655   1.3642   1.3642   1.4370
     1.7118   1.7224   2.2156   2.2451   2.2451   2.2476   2.4045   2.4045
     2.9193   2.9550   2.9551   3.0358   3.0358   3.0664   3.1013   3.1013
     3.7280   3.7280   4.1474   5.0331   5.0331   5.3825   5.6054   5.6054
     5.6484   5.6820   7.0277   7.1101

     occupation numbers 
     1.0000   1.0000   1.0000   1.0000   1.0000   1.0000   1.0000   1.0000
     1.0000   1.0000   1.0000   1.0000   1.0000   1.0000   1.0000   1.0000
     1.0000   1.0000   1.0000   1.0000   1.0000   1.0000   1.0000   1.0000
     1.0000   1.0000   1.0000   1.0000   1.0000   1.0000   1.0000   1.0000
     1.0000   1.0000   1.0000   1.0000

          k = 0.1667 0.1667 0.3333 (  3483 PWs)   bands (ev):

[...]
     1.0000   1.0000   1.0000   1.0000   1.0000   1.0000   1.0000   1.0000
     1.0000   1.0000   1.0000   1.0000

          k = 0.2500 0.4167-0.5000 (  3472 PWs)   bands (ev):

   -10.1238 -10.1238 -10.0374 -10.0374   1.5630   1.5630   1.7281   1.7281
     1.8431   1.8431   1.8525   1.8525   1.8991   1.8991   1.9786   1.9786
     2.9634   2.9634   2.9871   2.9871   3.0485   3.0485   3.0671   3.0671
     3.4582   3.4582   3.7990   3.7990   5.8515   5.8515   6.1860   6.1860
     6.4186   6.4186   6.6114   6.6114

     occupation numbers 
     1.0000   1.0000   1.0000   1.0000   1.0000   1.0000   1.0000   1.0000
     1.0000   1.0000   1.0000   1.0000   1.0000   1.0000   1.0000   1.0000
     1.0000   1.0000   1.0000   1.0000   1.0000   1.0000   1.0000   1.0000
     1.0000   1.0000   1.0000   1.0000   1.0000   1.0000   1.0000   1.0000
     1.0000   1.0000   1.0000   1.0000

          k = 0.2500-0.5000-0.5000 (  3476 PWs)   bands (ev):

   -10.0799 -10.0799 -10.0799 -10.0799   1.6628   1.6628   1.6628   1.6628
     1.8388   1.8388   1.8388   1.8388   1.9141   1.9141   1.9141   1.9141
     2.9733   2.9733   2.9733   2.9733   3.0607   3.0607   3.0607   3.0607
     3.6084   3.6084   3.6084   3.6084   6.0257   6.0257   6.0257   6.0257
     6.5541   6.5541   6.5541   6.5541

     occupation numbers 
     1.0000   1.0000   1.0000   1.0000   1.0000   1.0000   1.0000   1.0000
     1.0000   1.0000   1.0000   1.0000   1.0000   1.0000   1.0000   1.0000
     1.0000   1.0000   1.0000   1.0000   1.0000   1.0000   1.0000   1.0000
     1.0000   1.0000   1.0000   1.0000   1.0000   1.0000   1.0000   1.0000
     1.0000   1.0000   1.0000   1.0000

          k = 0.3333 0.3333 0.3333 (  3476 PWs)   bands (ev):

   -10.2577 -10.0233 -10.0233 -10.0233   1.4323   1.6026   1.6026   1.6026
     1.8201   1.8201   1.9951   1.9951   1.9951   2.0070   2.0070   2.0070
     2.9767   2.9767   3.0418   3.0418   3.0418   3.0595   3.0595   3.0595
     3.4269   3.4269   3.4269   4.2465   5.8879   5.8879   5.8879   6.2185
     6.2185   6.2185   6.7639   6.7639

     occupation numbers 
     1.0000   1.0000   1.0000   1.0000   1.0000   1.0000   1.0000   1.0000
     1.0000   1.0000   1.0000   1.0000   1.0000   1.0000   1.0000   1.0000
     1.0000   1.0000   1.0000   1.0000   1.0000   1.0000   1.0000   1.0000
     1.0000   1.0000   1.0000   1.0000   1.0000   1.0000   1.0000   1.0000
     1.0000   1.0000   1.0000   1.0000

          k = 0.3333 0.3333 0.4167 (  3466 PWs)   bands (ev):

   -10.1997 -10.0782 -10.0211 -10.0211   1.4680   1.5711   1.6835   1.6835
     1.8335   1.8472   1.9067   1.9172   1.9172   1.9360   2.0116   2.0116
     2.9742   3.0081   3.0096   3.0218   3.0218   3.0436   3.0860   3.0860
     3.3111   3.3111   3.5919   4.0000   5.9324   5.9324   6.2315   6.2988
     6.2988   6.3516   6.6345   6.6958

     occupation numbers 
     1.0000   1.0000   1.0000   1.0000   1.0000   1.0000   1.0000   1.0000
     1.0000   1.0000   1.0000   1.0000   1.0000   1.0000   1.0000   1.0000
     1.0000   1.0000   1.0000   1.0000   1.0000   1.0000   1.0000   1.0000
     1.0000   1.0000   1.0000   1.0000   1.0000   1.0000   1.0000   1.0000
     1.0000   1.0000   1.0000   1.0000

          k = 0.3333 0.3333-0.5000 (  3452 PWs)   bands (ev):

   -10.1384 -10.1384 -10.0203 -10.0203   1.5190   1.5190   1.7372   1.7372
     1.8564   1.8564   1.8629   1.8629   1.8860   1.8860   2.0156   2.0156
     2.9827   2.9827   3.0087   3.0087   3.0318   3.0318   3.0962   3.0962
     3.2762   3.2762   3.7826   3.7826   5.9429   5.9429   6.3309   6.3309
     6.4938   6.4938   6.5107   6.5107

     occupation numbers 
     1.0000   1.0000   1.0000   1.0000   1.0000   1.0000   1.0000   1.0000
     1.0000   1.0000   1.0000   1.0000   1.0000   1.0000   1.0000   1.0000
     1.0000   1.0000   1.0000   1.0000   1.0000   1.0000   1.0000   1.0000
     1.0000   1.0000   1.0000   1.0000   1.0000   1.0000   1.0000   1.0000
     1.0000   1.0000   1.0000   1.0000

          k = 0.3333 0.4167 0.4167 (  3473 PWs)   bands (ev):

   -10.1546 -10.0621 -10.0621 -10.0325   1.5162   1.6476   1.6476   1.7157
     1.8492   1.8513   1.8712   1.8712   1.9038   1.9318   1.9318   1.9379
     2.9883   3.0180   3.0180   3.0221   3.0250   3.0537   3.0537   3.0737
     3.2760   3.4242   3.4242   3.7713   6.0675   6.2160   6.2160   6.3945
     6.4293   6.4293   6.5480   6.6766

     occupation numbers 
     1.0000   1.0000   1.0000   1.0000   1.0000   1.0000   1.0000   1.0000
     1.0000   1.0000   1.0000   1.0000   1.0000   1.0000   1.0000   1.0000
     1.0000   1.0000   1.0000   1.0000   1.0000   1.0000   1.0000   1.0000
     1.0000   1.0000   1.0000   1.0000   1.0000   1.0000   1.0000   1.0000
     1.0000   1.0000   1.0000   1.0000

          k = 0.3333 0.4167-0.5000 (  3470 PWs)   bands (ev):

   -10.1076 -10.1076 -10.0464 -10.0464   1.5815   1.5815   1.7141   1.7141
     1.8539   1.8539   1.8539   1.8539   1.8816   1.8816   1.9328   1.9328
     2.9983   2.9983   3.0160   3.0160   3.0407   3.0407   3.0670   3.0670
     3.3199   3.3199   3.5795   3.5795   6.1542   6.1542   6.4104   6.4104
     6.4502   6.4502   6.5780   6.5780

     occupation numbers 
     1.0000   1.0000   1.0000   1.0000   1.0000   1.0000   1.0000   1.0000
     1.0000   1.0000   1.0000   1.0000   1.0000   1.0000   1.0000   1.0000
     1.0000   1.0000   1.0000   1.0000   1.0000   1.0000   1.0000   1.0000
     1.0000   1.0000   1.0000   1.0000   1.0000   1.0000   1.0000   1.0000
     1.0000   1.0000   1.0000   1.0000

          k = 0.3333-0.5000-0.5000 (  3476 PWs)   bands (ev):

   -10.0762 -10.0762 -10.0762 -10.0762   1.6541   1.6541   1.6541   1.6541
     1.8538   1.8538   1.8538   1.8538   1.8899   1.8899   1.8899   1.8899
     3.0057   3.0057   3.0057   3.0057   3.0541   3.0541   3.0541   3.0541
     3.4252   3.4252   3.4252   3.4252   6.2993   6.2993   6.2993   6.2993
     6.5517   6.5518   6.5518   6.5518

     occupation numbers 
     1.0000   1.0000   1.0000   1.0000   1.0000   1.0000   1.0000   1.0000
     1.0000   1.0000   1.0000   1.0000   1.0000   1.0000   1.0000   1.0000
     1.0000   1.0000   1.0000   1.0000   1.0000   1.0000   1.0000   1.0000
     1.0000   1.0000   1.0000   1.0000   1.0000   1.0000   1.0000   1.0000
     1.0000   1.0000   1.0000   1.0000

          k = 0.4167 0.4167 0.4167 (  3458 PWs)   bands (ev):

   -10.1228 -10.0595 -10.0595 -10.0595   1.5551   1.6735   1.6735   1.6735
     1.8561   1.8561   1.8695   1.8695   1.8695   1.9001   1.9001   1.9001
     3.0177   3.0177   3.0379   3.0379   3.0379   3.0455   3.0455   3.0455
     3.3124   3.3124   3.3124   3.5700   6.3506   6.3506   6.3506   6.4615
     6.4615   6.4615   6.6081   6.6081

     occupation numbers 
     1.0000   1.0000   1.0000   1.0000   1.0000   1.0000   1.0000   1.0000
     1.0000   1.0000   1.0000   1.0000   1.0000   1.0000   1.0000   1.0000
     1.0000   1.0000   1.0000   1.0000   1.0000   1.0000   1.0000   1.0000
     1.0000   1.0000   1.0000   1.0000   1.0000   1.0000   1.0000   1.0000
     1.0000   1.0000   1.0000   1.0000

          k = 0.4167 0.4167-0.5000 (  3474 PWs)   bands (ev):

   -10.0902 -10.0902 -10.0585 -10.0585   1.6112   1.6112   1.6864   1.6864
     1.8593   1.8593   1.8601   1.8601   1.8722   1.8722   1.8947   1.8947
     3.0230   3.0230   3.0317   3.0318   3.0352   3.0352   3.0525   3.0525
     3.2773   3.2773   3.4167   3.4167   6.3756   6.3756   6.4950   6.4950
     6.5345   6.5345   6.5394   6.5394

     occupation numbers 
     1.0000   1.0000   1.0000   1.0000   1.0000   1.0000   1.0000   1.0000
     1.0000   1.0000   1.0000   1.0000   1.0000   1.0000   1.0000   1.0000
     1.0000   1.0000   1.0000   1.0000   1.0000   1.0000   1.0000   1.0000
     1.0000   1.0000   1.0000   1.0000   1.0000   1.0000   1.0000   1.0000
     1.0000   1.0000   1.0000   1.0000

          k = 0.4167-0.5000-0.5000 (  3488 PWs)   bands (ev):

   -10.0734 -10.0734 -10.0734 -10.0734   1.6489   1.6489   1.6489   1.6489
     1.8636   1.8636   1.8636   1.8636   1.8730   1.8730   1.8730   1.8730
     3.0285   3.0285   3.0285   3.0285   3.0433   3.0433   3.0433   3.0433
     3.3155   3.3155   3.3155   3.3155   6.4841   6.4841   6.4841   6.4841
     6.5500   6.5500   6.5500   6.5500

     occupation numbers 
     1.0000   1.0000   1.0000   1.0000   1.0000   1.0000   1.0000   1.0000
     1.0000   1.0000   1.0000   1.0000   1.0000   1.0000   1.0000   1.0000
     1.0000   1.0000   1.0000   1.0000   1.0000   1.0000   1.0000   1.0000
     1.0000   1.0000   1.0000   1.0000   1.0000   1.0000   1.0000   1.0000
     1.0000   1.0000   1.0000   1.0000

          k =-0.5000-0.5000-0.5000 (  3448 PWs)   bands (ev):

   -10.0724 -10.0724 -10.0724 -10.0724   1.6473   1.6473   1.6473   1.6473
     1.8672   1.8672   1.8672   1.8672   1.8672   1.8672   1.8672   1.8672
     3.0369   3.0369   3.0369   3.0369   3.0369   3.0369   3.0369   3.0369
     3.2809   3.2809   3.2809   3.2809   6.5495   6.5495   6.5495   6.5495
     6.5495   6.5495   6.5495   6.5495

     occupation numbers 
     1.0000   1.0000   1.0000   1.0000   1.0000   1.0000   1.0000   1.0000
     1.0000   1.0000   1.0000   1.0000   1.0000   1.0000   1.0000   1.0000
     1.0000   1.0000   1.0000   1.0000   1.0000   1.0000   1.0000   1.0000
     1.0000   1.0000   1.0000   1.0000   1.0000   1.0000   1.0000   1.0000
     1.0000   1.0000   1.0000   1.0000

     highest occupied level (ev):     7.3639

* XDM dispersion
  a1 =     0.327500
  a2 (ang) =     2.767300
  a2 (bohr) =     5.229439

+ Volumes and moments
# All results in atomic units (Hartree,bohr)
# i        V             Vfree           M1             M2             M3
  1   9.388231E+01   1.053493E+02   7.771803E+00   1.192865E+02   3.749292E+03
  2   9.388231E+01   1.053493E+02   7.771803E+00   1.192865E+02   3.749292E+03
  3   9.388231E+01   1.053493E+02   7.771803E+00   1.192865E+02   3.749292E+03
  4   9.388231E+01   1.053493E+02   7.771803E+00   1.192865E+02   3.749292E+03
  5   2.273546E+01   2.378215E+01   4.116075E+00   3.127045E+01   3.188759E+02
  6   2.273546E+01   2.378215E+01   4.116075E+00   3.127045E+01   3.188759E+02
  7   2.273546E+01   2.378215E+01   4.116075E+00   3.127045E+01   3.188759E+02
  8   2.273546E+01   2.378215E+01   4.116075E+00   3.127045E+01   3.188759E+02

+ Dispersion coefficients
# All results in atomic units (Hartree,bohr).
# i   j      C6             C8             C10            Rc            Rvdw
  1   1   1.343719E+02   6.187273E+03   3.922486E+05   7.366105E+00   7.641838E+00
  2   1   1.343719E+02   6.187273E+03   3.922486E+05   7.366105E+00   7.641838E+00
  2   2   1.343719E+02   6.187273E+03   3.922486E+05   7.366104E+00   7.641838E+00
  3   1   1.343719E+02   6.187273E+03   3.922486E+05   7.366105E+00   7.641838E+00
  3   2   1.343719E+02   6.187273E+03   3.922486E+05   7.366104E+00   7.641838E+00
  3   3   1.343719E+02   6.187273E+03   3.922486E+05   7.366104E+00   7.641838E+00
  4   1   1.343719E+02   6.187273E+03   3.922486E+05   7.366105E+00   7.641838E+00
  4   2   1.343719E+02   6.187273E+03   3.922486E+05   7.366104E+00   7.641838E+00
  4   3   1.343719E+02   6.187273E+03   3.922486E+05   7.366104E+00   7.641838E+00
  4   4   1.343719E+02   6.187273E+03   3.922486E+05   7.366104E+00   7.641838E+00
  5   1   3.135321E+01   1.079136E+03   5.046397E+04   6.346356E+00   7.307871E+00
  5   2   3.135321E+01   1.079136E+03   5.046397E+04   6.346356E+00   7.307871E+00
  5   3   3.135321E+01   1.079136E+03   5.046397E+04   6.346356E+00   7.307871E+00
  5   4   3.135321E+01   1.079136E+03   5.046397E+04   6.346356E+00   7.307871E+00
  5   5   1.064822E+01   2.426884E+02   5.880943E+03   4.848156E+00   6.817210E+00
  6   1   3.135321E+01   1.079136E+03   5.046397E+04   6.346356E+00   7.307871E+00
  6   2   3.135321E+01   1.079136E+03   5.046397E+04   6.346356E+00   7.307871E+00
  6   3   3.135321E+01   1.079136E+03   5.046397E+04   6.346356E+00   7.307871E+00
  6   4   3.135321E+01   1.079136E+03   5.046397E+04   6.346356E+00   7.307871E+00
  6   5   1.064822E+01   2.426884E+02   5.880943E+03   4.848156E+00   6.817210E+00
  6   6   1.064822E+01   2.426884E+02   5.880943E+03   4.848156E+00   6.817210E+00
  7   1   3.135321E+01   1.079136E+03   5.046397E+04   6.346356E+00   7.307871E+00
  7   2   3.135321E+01   1.079136E+03   5.046397E+04   6.346356E+00   7.307871E+00
  7   3   3.135321E+01   1.079136E+03   5.046397E+04   6.346356E+00   7.307871E+00
  7   4   3.135321E+01   1.079136E+03   5.046397E+04   6.346356E+00   7.307871E+00
  7   5   1.064822E+01   2.426884E+02   5.880943E+03   4.848156E+00   6.817210E+00
  7   6   1.064822E+01   2.426884E+02   5.880943E+03   4.848156E+00   6.817210E+00
  7   7   1.064822E+01   2.426884E+02   5.880943E+03   4.848156E+00   6.817210E+00
  8   1   3.135321E+01   1.079136E+03   5.046397E+04   6.346356E+00   7.307871E+00
  8   2   3.135321E+01   1.079136E+03   5.046397E+04   6.346356E+00   7.307871E+00
  8   3   3.135321E+01   1.079136E+03   5.046397E+04   6.346356E+00   7.307871E+00
  8   4   3.135321E+01   1.079136E+03   5.046397E+04   6.346356E+00   7.307871E+00
  8   5   1.064822E+01   2.426884E+02   5.880943E+03   4.848156E+00   6.817210E+00
  8   6   1.064822E+01   2.426884E+02   5.880943E+03   4.848156E+00   6.817210E+00
  8   7   1.064822E+01   2.426884E+02   5.880943E+03   4.848156E+00   6.817210E+00
  8   8   1.064822E+01   2.426884E+02   5.880943E+03   4.848156E+00   6.817210E+00

+ van der Waals energies, forces and stresses (Ry,bohr)
  Evdw(total,Ry)   =  -1.691507490754E-01
  Evdw(C6,Ry)      =  -7.922342253278E-02
  Evdw(C8,Ry)      =  -4.673176759756E-02
  Evdw(C10,Ry)     =  -4.319555894506E-02
  Fvdw (001,Ry/bohr) =   1.702574473090E-18  -1.001900943265E-18   3.207322157607E-18
  Fvdw (002,Ry/bohr) =   1.598093981677E-17  -1.803248755506E-18  -3.218855553349E-18
  Fvdw (003,Ry/bohr) =  -1.189209438112E-17  -8.858960790494E-19  -3.145271653786E-18
  Fvdw (004,Ry/bohr) =  -1.138739251628E-17  -1.370442428489E-19   3.146755920474E-18
  Fvdw (005,Ry/bohr) =   2.347754934466E-12   2.347761490751E-12   2.347753925515E-12
  Fvdw (006,Ry/bohr) =   2.347755250322E-12  -2.347761744211E-12  -2.347754207304E-12
  Fvdw (007,Ry/bohr) =  -2.347769064680E-12   2.347761642347E-12  -2.347753847404E-12
  Fvdw (008,Ry/bohr) =  -2.347767612432E-12  -2.347760980665E-12   2.347754092487E-12
  sigma_vdw (Ry/bohr**3) =  -2.586613808252E-04   4.711730751179E-21  -4.434497255612E-21  
                             4.711730751179E-21  -2.586613808252E-04   3.413438729703E-21  
                            -4.434497255612E-21   3.413438729703E-21  -2.586613808252E-04  
  sigma_vdw (GPa) =  -3.805040272671E+00   6.931195219411E-17  -6.523370668177E-17  
                      6.931195219411E-17  -3.805040272671E+00   5.021341722285E-17  
                     -6.523370668177E-17   5.021341722285E-17  -3.805040272671E+00  


!    total energy              =   -1141.95964746 Ry

     total all-electron energy =    -14970.935299 Ry
     estimated scf accuracy    <          1.4E-09 Ry

     The total energy is the sum of the following terms:
     one-electron contribution =    -298.93973788 Ry
     hartree contribution      =     233.12145328 Ry
     xc contribution           =    -219.15416561 Ry
     ewald contribution        =    -436.83181830 Ry
     Dispersion XDM Correction =      -0.16915075 Ry
     one-center paw contrib.   =    -419.98622820 Ry
      -> PAW hartree energy AE =     251.87094787 Ry
      -> PAW hartree energy PS =    -250.55902886 Ry
      -> PAW xc energy AE      =    -286.90779856 Ry
      -> PAW xc energy PS      =      94.77672515 Ry
      -> total E_H with PAW    =     234.43337229 Ry
      -> total E_XC with PAW   =    -411.28523903 Ry

     convergence has been achieved in  30 iterations

     Writing output data file ./tmp/ZnO.save/

     init_run     :      7.80s CPU      8.16s WALL (       1 calls)
     electrons    :    906.16s CPU    928.38s WALL (       1 calls)

     Called by init_run:
     wfcinit      :      7.05s CPU      7.27s WALL (       1 calls)
     wfcinit:atom :      0.05s CPU      0.05s WALL (      84 calls)
     wfcinit:wfcr :      6.75s CPU      6.97s WALL (      84 calls)
     potinit      :      0.35s CPU      0.39s WALL (       1 calls)
     hinit0       :      0.23s CPU      0.24s WALL (       1 calls)
     init_xdm     :      0.00s CPU      0.00s WALL (       1 calls)

     Called by electrons:
     c_bands      :    748.78s CPU    762.10s WALL (      30 calls)
     sum_band     :    139.65s CPU    147.78s WALL (      30 calls)
     v_of_rho     :      0.85s CPU      0.94s WALL (      31 calls)
     v_h          :      0.04s CPU      0.05s WALL (      31 calls)
     v_xc         :      0.80s CPU      0.89s WALL (      31 calls)
     newd         :      2.88s CPU      3.53s WALL (      31 calls)
     PAW_pot      :     12.37s CPU     12.41s WALL (      31 calls)
     mix_rho      :      0.38s CPU      0.42s WALL (      30 calls)
     energy_xdm   :      1.50s CPU      1.51s WALL (       1 calls)
     exdm:environ :      0.00s CPU      0.01s WALL (       2 calls)
     exdm:paw_cha :      0.12s CPU      0.12s WALL (       1 calls)
     exdm:rho     :      0.43s CPU      0.43s WALL (       1 calls)

     Called by c_bands:
     init_us_2    :      4.60s CPU      4.67s WALL (    5124 calls)
     cegterg      :    730.40s CPU    743.46s WALL (    2520 calls)

     Called by sum_band:
     sum_band:wei :      0.00s CPU      0.00s WALL (      30 calls)
     sum_band:loo :    136.36s CPU    143.73s WALL (      30 calls)
     sum_band:buf :      0.61s CPU      0.62s WALL (    2520 calls)
     sum_band:ini :      2.25s CPU      2.26s WALL (    2520 calls)
     sum_band:cal :     30.37s CPU     31.21s WALL (    2520 calls)
     sum_band:bec :      0.26s CPU      0.26s WALL (    2520 calls)
     addusdens    :      2.84s CPU      3.57s WALL (      30 calls)
     addusd:skk   :      0.02s CPU      0.02s WALL (      60 calls)
     addusd:dgemm :      1.50s CPU      2.20s WALL (      60 calls)
     addusd:qvan2 :      1.00s CPU      1.00s WALL (      60 calls)

     Called by *egterg:
     cdiaghg      :     39.31s CPU     39.69s WALL (   13738 calls)
     cegterg:over :    106.39s CPU    107.08s WALL (   11218 calls)
     cegterg:upda :     43.25s CPU     43.56s WALL (   11218 calls)
     cegterg:last :    112.12s CPU    113.16s WALL (    7794 calls)
     cdiaghg:chol :      3.17s CPU      3.21s WALL (   13738 calls)
     cdiaghg:inve :      0.43s CPU      0.44s WALL (   13738 calls)
     cdiaghg:para :      9.79s CPU      9.89s WALL (   27476 calls)
     h_psi        :    325.63s CPU    336.16s WALL (   13822 calls)
     s_psi        :     75.13s CPU     75.39s WALL (   13822 calls)
     g_psi        :      3.38s CPU      3.40s WALL (   11218 calls)

     Called by h_psi:
     h_psi:calbec :    100.22s CPU    103.84s WALL (   13822 calls)
     vloc_psi     :    143.64s CPU    150.14s WALL (   13822 calls)
     add_vuspsi   :     80.66s CPU     81.13s WALL (   13822 calls)

     General routines
     calbec       :    130.49s CPU    134.99s WALL (   16342 calls)
     fft          :      0.61s CPU      0.66s WALL (     499 calls)
     ffts         :      0.05s CPU      0.05s WALL (      91 calls)
     fftw         :    210.75s CPU    221.77s WALL (  971254 calls)
     interpolate  :      0.06s CPU      0.06s WALL (      31 calls)

     Parallel routines
     fft_scatt_xy :     24.75s CPU     26.11s WALL (  971844 calls)
     fft_scatt_yz :     86.69s CPU     91.41s WALL (  971844 calls)

     PAW routines
     PAW_pot      :     12.37s CPU     12.41s WALL (      31 calls)
     PAW_symme    :      0.04s CPU      0.04s WALL (      61 calls)

     PWSCF        :  15m14.25s CPU  15m37.13s WALL


   This run was terminated on:  17:37:52   8Sep2024            

=------------------------------------------------------------------------------=
   JOB DONE.
=------------------------------------------------------------------------------=
