
     Program PWSCF v.6.7MaX starts on  8Sep2024 at 17:40:44 

     This program is part of the open-source Quantum ESPRESSO suite
     for quantum simulation of materials; please cite
         "P. Giannozzi et al., J. Phys.:Condens. Matter 21 395502 (2009);
         "P. Giannozzi et al., J. Phys.:Condens. Matter 29 465901 (2017);
          URL http://www.quantum-espresso.org", 
     in publications or presentations arising from this work. More details at
     http://www.quantum-espresso.org/quote

     Parallel version (MPI), running on     4 processors

     MPI processes distributed on     1 nodes
     R & G space division:  proc/nbgrp/npool/nimage =       4
     Reading input from ZnO_relax.inp

     Current dimensions of program PWSCF are:
     Max number of different atomic species (ntypx) = 10
     Max number of k-points (npk) =  40000
     Max angular momentum in pseudopotentials (lmaxx) =  3
     file Zn.pbe-dnl-kjpaw_psl.1.0.0.UPF: wavefunction(s)  4S 3D renormalized
     file O.pbe-n-kjpaw_psl.1.0.0.UPF: wavefunction(s)  2S 2P renormalized

     IMPORTANT: XC functional enforced from input :
     Exchange-correlation= PBESOL
                           (   1   4  10   8   0   0   0)
     Any further DFT definition will be discarded
     Please, verify this is what you really want


     --------------------------------------------
     Parameters for DFT-D3 Dispersion Correction:
     --------------------------------------------
       Reference C6 values for interpolation: 

         atom   Coordination number   C6
         O          0.000            31.01
         O          0.993            25.63
         O          1.989            20.74
         Zn         0.000           681.04
         Zn         1.942           306.91

       Values used:

         atom   Coordination number  R0_AB[au]  C6      C8
         Zn         5.851            3.053    306.91  23930.67
         Zn         5.851            3.053    306.91  23930.67
         Zn         5.851            3.053    306.91  23930.67
         Zn         5.851            3.053    306.91  23930.67
         O          3.757            2.345     20.74    418.58
         O          3.757            2.345     20.74    418.58
         O          3.757            2.345     20.74    418.58
         O          3.757            2.345     20.74    418.58

         Molecular C6 ( Ry / a.u.^6 ) =      7583.24


     Subspace diagonalization in iterative solution of the eigenvalue problem:
     one sub-group per band group will be used
     scalapack distributed-memory algorithm (size of sub-group:  2*  2 procs)

     Found symmetry operation: I + (  0.0000 -0.5000 -0.5000)
     This is a supercell, fractional translations are disabled

     Parallelization info
     --------------------
     sticks:   dense  smooth     PW     G-vecs:    dense   smooth      PW
     Min         475     276     83                15667     6955    1137
     Max         476     278     84                15668     6958    1140
     Sum        1901    1109    333                62669    27825    4553



     bravais-lattice index     =            1
     lattice parameter (alat)  =       8.6143  a.u.
     unit-cell volume          =     639.2421 (a.u.)^3
     number of atoms/cell      =            8
     number of atomic types    =            2
     number of electrons       =        72.00
     number of Kohn-Sham states=           36
     kinetic-energy cutoff     =      47.0000  Ry
     charge density cutoff     =     323.0000  Ry
     scf convergence threshold =      1.0E-08
     mixing beta               =       0.6000
     number of iterations used =            8  plain     mixing
     energy convergence thresh.=      1.0E-04
     force convergence thresh. =      1.0E-03
     Exchange-correlation= PBESOL
                           (   1   4  10   8   0   0   0)
     nstep                     =          500


     celldm(1)=   8.614335  celldm(2)=   0.000000  celldm(3)=   0.000000
     celldm(4)=   0.000000  celldm(5)=   0.000000  celldm(6)=   0.000000

     crystal axes: (cart. coord. in units of alat)
               a(1) = (   1.000000   0.000000   0.000000 )  
               a(2) = (   0.000000   1.000000   0.000000 )  
               a(3) = (   0.000000   0.000000   1.000000 )  

     reciprocal axes: (cart. coord. in units 2 pi/alat)
               b(1) = (  1.000000  0.000000  0.000000 )  
               b(2) = (  0.000000  1.000000  0.000000 )  
               b(3) = (  0.000000  0.000000  1.000000 )  


     PseudoPot. # 1 for Zn read from file:
     /home/alessandro_rotondi/q-e/pseudo/Zn.pbe-dnl-kjpaw_psl.1.0.0.UPF
     MD5 check sum: c608214d9520ac179f507641260889e3
     Pseudo is Projector augmented-wave + core cor, Zval = 12.0
     Generated using &quot;atomic&quot; code by A. Dal Corso  v.6.2.2
     Shape of augmentation charge: PSQ
     Using radial grid of 1201 points,  6 beta functions with: 
                l(1) =   0
                l(2) =   0
                l(3) =   1
                l(4) =   1
                l(5) =   2
                l(6) =   2
     Q(r) pseudized with 0 coefficients 


     PseudoPot. # 2 for O  read from file:
     /home/alessandro_rotondi/q-e/pseudo/O.pbe-n-kjpaw_psl.1.0.0.UPF
     MD5 check sum: e99d9cef9b487d1ca56f5b95ecd0fd7a
     Pseudo is Projector augmented-wave + core cor, Zval =  6.0
     Generated using &quot;atomic&quot; code by A. Dal Corso  v.6.3
     Shape of augmentation charge: PSQ
     Using radial grid of 1095 points,  4 beta functions with: 
                l(1) =   0
                l(2) =   0
                l(3) =   1
                l(4) =   1
     Q(r) pseudized with 0 coefficients 


     atomic species   valence    mass     pseudopotential
        Zn            12.00    65.39000     Zn( 1.00)
        O              6.00    15.99940     O ( 1.00)

     24 Sym. Ops. (no inversion) found


                                    s                        frac. trans.

      isym =  1     identity                                     

 cryst.   s( 1) = (     1          0          0      )
                  (     0          1          0      )
                  (     0          0          1      )

 cart.    s( 1) = (  1.0000000  0.0000000  0.0000000 )
                  (  0.0000000  1.0000000  0.0000000 )
                  (  0.0000000  0.0000000  1.0000000 )


      isym =  2     180 deg rotation - cart. axis [0,0,1]        

 cryst.   s( 2) = (    -1          0          0      )
                  (     0         -1          0      )
                  (     0          0          1      )

 cart.    s( 2) = ( -1.0000000  0.0000000  0.0000000 )
                  (  0.0000000 -1.0000000  0.0000000 )
                  (  0.0000000  0.0000000  1.0000000 )


      isym =  3     180 deg rotation - cart. axis [0,1,0]        

 cryst.   s( 3) = (    -1          0          0      )
                  (     0          1          0      )
                  (     0          0         -1      )

 cart.    s( 3) = ( -1.0000000  0.0000000  0.0000000 )
                  (  0.0000000  1.0000000  0.0000000 )
                  (  0.0000000  0.0000000 -1.0000000 )


      isym =  4     180 deg rotation - cart. axis [1,0,0]        

 cryst.   s( 4) = (     1          0          0      )
                  (     0         -1          0      )
                  (     0          0         -1      )

 cart.    s( 4) = (  1.0000000  0.0000000  0.0000000 )
                  (  0.0000000 -1.0000000  0.0000000 )
                  (  0.0000000  0.0000000 -1.0000000 )


      isym =  5     120 deg rotation - cart. axis [-1,-1,-1]     

 cryst.   s( 5) = (     0          0          1      )
                  (     1          0          0      )
                  (     0          1          0      )

 cart.    s( 5) = (  0.0000000  1.0000000  0.0000000 )
                  (  0.0000000  0.0000000  1.0000000 )
                  (  1.0000000  0.0000000  0.0000000 )


      isym =  6     120 deg rotation - cart. axis [-1,1,1]       

 cryst.   s( 6) = (     0          0         -1      )
                  (    -1          0          0      )
                  (     0          1          0      )

 cart.    s( 6) = (  0.0000000 -1.0000000  0.0000000 )
                  (  0.0000000  0.0000000  1.0000000 )
                  ( -1.0000000  0.0000000  0.0000000 )


      isym =  7     120 deg rotation - cart. axis [1,1,-1]       

 cryst.   s( 7) = (     0          0         -1      )
                  (     1          0          0      )
                  (     0         -1          0      )

 cart.    s( 7) = (  0.0000000  1.0000000  0.0000000 )
                  (  0.0000000  0.0000000 -1.0000000 )
                  ( -1.0000000  0.0000000  0.0000000 )


      isym =  8     120 deg rotation - cart. axis [1,-1,1]       

 cryst.   s( 8) = (     0          0          1      )
                  (    -1          0          0      )
                  (     0         -1          0      )

 cart.    s( 8) = (  0.0000000 -1.0000000  0.0000000 )
                  (  0.0000000  0.0000000 -1.0000000 )
                  (  1.0000000  0.0000000  0.0000000 )


      isym =  9     120 deg rotation - cart. axis [1,1,1]        

 cryst.   s( 9) = (     0          1          0      )
                  (     0          0          1      )
                  (     1          0          0      )

 cart.    s( 9) = (  0.0000000  0.0000000  1.0000000 )
                  (  1.0000000  0.0000000  0.0000000 )
                  (  0.0000000  1.0000000  0.0000000 )


      isym = 10     120 deg rotation - cart. axis [-1,1,-1]      

 cryst.   s(10) = (     0         -1          0      )
                  (     0          0         -1      )
                  (     1          0          0      )

 cart.    s(10) = (  0.0000000  0.0000000  1.0000000 )
                  ( -1.0000000  0.0000000  0.0000000 )
                  (  0.0000000 -1.0000000  0.0000000 )


      isym = 11     120 deg rotation - cart. axis [1,-1,-1]      

 cryst.   s(11) = (     0         -1          0      )
                  (     0          0          1      )
                  (    -1          0          0      )

 cart.    s(11) = (  0.0000000  0.0000000 -1.0000000 )
                  ( -1.0000000  0.0000000  0.0000000 )
                  (  0.0000000  1.0000000  0.0000000 )


      isym = 12     120 deg rotation - cart. axis [-1,-1,1]      

 cryst.   s(12) = (     0          1          0      )
                  (     0          0         -1      )
                  (    -1          0          0      )

 cart.    s(12) = (  0.0000000  0.0000000 -1.0000000 )
                  (  1.0000000  0.0000000  0.0000000 )
                  (  0.0000000 -1.0000000  0.0000000 )


      isym = 13     inv. 180 deg rotation - cart. axis [1,1,0]   

 cryst.   s(13) = (     0         -1          0      )
                  (    -1          0          0      )
                  (     0          0          1      )

 cart.    s(13) = (  0.0000000 -1.0000000  0.0000000 )
                  ( -1.0000000  0.0000000  0.0000000 )
                  (  0.0000000  0.0000000  1.0000000 )


      isym = 14     inv. 180 deg rotation - cart. axis [1,-1,0]  

 cryst.   s(14) = (     0          1          0      )
                  (     1          0          0      )
                  (     0          0          1      )

 cart.    s(14) = (  0.0000000  1.0000000  0.0000000 )
                  (  1.0000000  0.0000000  0.0000000 )
                  (  0.0000000  0.0000000  1.0000000 )


      isym = 15     inv.  90 deg rotation - cart. axis [0,0,-1]  

 cryst.   s(15) = (     0          1          0      )
                  (    -1          0          0      )
                  (     0          0         -1      )

 cart.    s(15) = (  0.0000000 -1.0000000  0.0000000 )
                  (  1.0000000  0.0000000  0.0000000 )
                  (  0.0000000  0.0000000 -1.0000000 )


      isym = 16     inv.  90 deg rotation - cart. axis [0,0,1]   

 cryst.   s(16) = (     0         -1          0      )
                  (     1          0          0      )
                  (     0          0         -1      )

 cart.    s(16) = (  0.0000000  1.0000000  0.0000000 )
                  ( -1.0000000  0.0000000  0.0000000 )
                  (  0.0000000  0.0000000 -1.0000000 )


      isym = 17     inv. 180 deg rotation - cart. axis [1,0,1]   

 cryst.   s(17) = (     0          0         -1      )
                  (     0          1          0      )
                  (    -1          0          0      )

 cart.    s(17) = (  0.0000000  0.0000000 -1.0000000 )
                  (  0.0000000  1.0000000  0.0000000 )
                  ( -1.0000000  0.0000000  0.0000000 )


      isym = 18     inv. 180 deg rotation - cart. axis [-1,0,1]  

 cryst.   s(18) = (     0          0          1      )
                  (     0          1          0      )
                  (     1          0          0      )

 cart.    s(18) = (  0.0000000  0.0000000  1.0000000 )
                  (  0.0000000  1.0000000  0.0000000 )
                  (  1.0000000  0.0000000  0.0000000 )


      isym = 19     inv.  90 deg rotation - cart. axis [0,1,0]   

 cryst.   s(19) = (     0          0          1      )
                  (     0         -1          0      )
                  (    -1          0          0      )

 cart.    s(19) = (  0.0000000  0.0000000 -1.0000000 )
                  (  0.0000000 -1.0000000  0.0000000 )
                  (  1.0000000  0.0000000  0.0000000 )


      isym = 20     inv.  90 deg rotation - cart. axis [0,-1,0]  

 cryst.   s(20) = (     0          0         -1      )
                  (     0         -1          0      )
                  (     1          0          0      )

 cart.    s(20) = (  0.0000000  0.0000000  1.0000000 )
                  (  0.0000000 -1.0000000  0.0000000 )
                  ( -1.0000000  0.0000000  0.0000000 )


      isym = 21     inv. 180 deg rotation - cart. axis [0,1,1]   

 cryst.   s(21) = (     1          0          0      )
                  (     0          0         -1      )
                  (     0         -1          0      )

 cart.    s(21) = (  1.0000000  0.0000000  0.0000000 )
                  (  0.0000000  0.0000000 -1.0000000 )
                  (  0.0000000 -1.0000000  0.0000000 )


      isym = 22     inv. 180 deg rotation - cart. axis [0,1,-1]  

 cryst.   s(22) = (     1          0          0      )
                  (     0          0          1      )
                  (     0          1          0      )

 cart.    s(22) = (  1.0000000  0.0000000  0.0000000 )
                  (  0.0000000  0.0000000  1.0000000 )
                  (  0.0000000  1.0000000  0.0000000 )


      isym = 23     inv.  90 deg rotation - cart. axis [-1,0,0]  

 cryst.   s(23) = (    -1          0          0      )
                  (     0          0          1      )
                  (     0         -1          0      )

 cart.    s(23) = ( -1.0000000  0.0000000  0.0000000 )
                  (  0.0000000  0.0000000 -1.0000000 )
                  (  0.0000000  1.0000000  0.0000000 )


      isym = 24     inv.  90 deg rotation - cart. axis [1,0,0]   

 cryst.   s(24) = (    -1          0          0      )
                  (     0          0         -1      )
                  (     0          1          0      )

 cart.    s(24) = ( -1.0000000  0.0000000  0.0000000 )
                  (  0.0000000  0.0000000  1.0000000 )
                  (  0.0000000 -1.0000000  0.0000000 )


     point group T_d (-43m) 
     there are  5 classes
     the character table:

       E     8C3   3C2   6S4   6s_d 
A_1    1.00  1.00  1.00  1.00  1.00
A_2    1.00  1.00  1.00 -1.00 -1.00
E      2.00 -1.00  2.00  0.00  0.00
T_1    3.00  0.00 -1.00  1.00 -1.00
T_2    3.00  0.00 -1.00 -1.00  1.00

     the symmetry operations in each class and the name of the first element:

     E        1
          identity                                               
     8C3      5    7    8    6   12    9   10   11
          120 deg rotation - cart. axis [-1,-1,-1]               
     3C2      2    3    4
          180 deg rotation - cart. axis [0,0,1]                  
     6S4     15   16   20   19   23   24
          inv.  90 deg rotation - cart. axis [0,0,-1]            
     6s_d    13   14   17   18   21   22
          inv. 180 deg rotation - cart. axis [1,1,0]             

   Cartesian axes

     site n.     atom                  positions (alat units)
         1           Zn  tau(   1) = (   0.0000000   0.0000000   0.0000000  )
         2           Zn  tau(   2) = (   0.0000000   0.5000000   0.5000000  )
         3           Zn  tau(   3) = (   0.5000000   0.0000000   0.5000000  )
         4           Zn  tau(   4) = (   0.5000000   0.5000000   0.0000000  )
         5           O   tau(   5) = (   0.7500000   0.7500000   0.7500000  )
         6           O   tau(   6) = (   0.7500000   0.2500000   0.2500000  )
         7           O   tau(   7) = (   0.2500000   0.7500000   0.2500000  )
         8           O   tau(   8) = (   0.2500000   0.2500000   0.7500000  )

   Crystallographic axes

     site n.     atom                  positions (cryst. coord.)
         1           Zn  tau(   1) = (  0.0000000  0.0000000  0.0000000  )
         2           Zn  tau(   2) = (  0.0000000  0.5000000  0.5000000  )
         3           Zn  tau(   3) = (  0.5000000  0.0000000  0.5000000  )
         4           Zn  tau(   4) = (  0.5000000  0.5000000  0.0000000  )
         5           O   tau(   5) = (  0.7500000  0.7500000  0.7500000  )
         6           O   tau(   6) = (  0.7500000  0.2500000  0.2500000  )
         7           O   tau(   7) = (  0.2500000  0.7500000  0.2500000  )
         8           O   tau(   8) = (  0.2500000  0.2500000  0.7500000  )

     number of k points=    84
                       cart. coord. in units 2pi/alat
        k(    1) = (   0.0000000   0.0000000   0.0000000), wk =   0.0011574
        k(    2) = (   0.0000000   0.0000000   0.0833333), wk =   0.0069444
        k(    3) = (   0.0000000   0.0000000   0.1666667), wk =   0.0069444
        k(    4) = (   0.0000000   0.0000000   0.2500000), wk =   0.0069444
        k(    5) = (   0.0000000   0.0000000   0.3333333), wk =   0.0069444
        k(    6) = (   0.0000000   0.0000000   0.4166667), wk =   0.0069444
        k(    7) = (   0.0000000   0.0000000  -0.5000000), wk =   0.0034722
        k(    8) = (   0.0000000   0.0833333   0.0833333), wk =   0.0138889
        k(    9) = (   0.0000000   0.0833333   0.1666667), wk =   0.0277778
        k(   10) = (   0.0000000   0.0833333   0.2500000), wk =   0.0277778
        k(   11) = (   0.0000000   0.0833333   0.3333333), wk =   0.0277778
        k(   12) = (   0.0000000   0.0833333   0.4166667), wk =   0.0277778
        k(   13) = (   0.0000000   0.0833333  -0.5000000), wk =   0.0138889
        k(   14) = (   0.0000000   0.1666667   0.1666667), wk =   0.0138889
        k(   15) = (   0.0000000   0.1666667   0.2500000), wk =   0.0277778
        k(   16) = (   0.0000000   0.1666667   0.3333333), wk =   0.0277778
        k(   17) = (   0.0000000   0.1666667   0.4166667), wk =   0.0277778
        k(   18) = (   0.0000000   0.1666667  -0.5000000), wk =   0.0138889
        k(   19) = (   0.0000000   0.2500000   0.2500000), wk =   0.0138889
        k(   20) = (   0.0000000   0.2500000   0.3333333), wk =   0.0277778
        k(   21) = (   0.0000000   0.2500000   0.4166667), wk =   0.0277778
        k(   22) = (   0.0000000   0.2500000  -0.5000000), wk =   0.0138889
        k(   23) = (   0.0000000   0.3333333   0.3333333), wk =   0.0138889
        k(   24) = (   0.0000000   0.3333333   0.4166667), wk =   0.0277778
        k(   25) = (   0.0000000   0.3333333  -0.5000000), wk =   0.0138889
        k(   26) = (   0.0000000   0.4166667   0.4166667), wk =   0.0138889
        k(   27) = (   0.0000000   0.4166667  -0.5000000), wk =   0.0138889
        k(   28) = (   0.0000000  -0.5000000  -0.5000000), wk =   0.0034722
        k(   29) = (   0.0833333   0.0833333   0.0833333), wk =   0.0092593
        k(   30) = (   0.0833333   0.0833333   0.1666667), wk =   0.0277778
        k(   31) = (   0.0833333   0.0833333   0.2500000), wk =   0.0277778
        k(   32) = (   0.0833333   0.0833333   0.3333333), wk =   0.0277778
        k(   33) = (   0.0833333   0.0833333   0.4166667), wk =   0.0277778
        k(   34) = (   0.0833333   0.0833333  -0.5000000), wk =   0.0138889
        k(   35) = (   0.0833333   0.1666667   0.1666667), wk =   0.0277778
        k(   36) = (   0.0833333   0.1666667   0.2500000), wk =   0.0555556
        k(   37) = (   0.0833333   0.1666667   0.3333333), wk =   0.0555556
        k(   38) = (   0.0833333   0.1666667   0.4166667), wk =   0.0555556
        k(   39) = (   0.0833333   0.1666667  -0.5000000), wk =   0.0277778
        k(   40) = (   0.0833333   0.2500000   0.2500000), wk =   0.0277778
        k(   41) = (   0.0833333   0.2500000   0.3333333), wk =   0.0555556
        k(   42) = (   0.0833333   0.2500000   0.4166667), wk =   0.0555556
        k(   43) = (   0.0833333   0.2500000  -0.5000000), wk =   0.0277778
        k(   44) = (   0.0833333   0.3333333   0.3333333), wk =   0.0277778
        k(   45) = (   0.0833333   0.3333333   0.4166667), wk =   0.0555556
        k(   46) = (   0.0833333   0.3333333  -0.5000000), wk =   0.0277778
        k(   47) = (   0.0833333   0.4166667   0.4166667), wk =   0.0277778
        k(   48) = (   0.0833333   0.4166667  -0.5000000), wk =   0.0277778
        k(   49) = (   0.0833333  -0.5000000  -0.5000000), wk =   0.0069444
        k(   50) = (   0.1666667   0.1666667   0.1666667), wk =   0.0092593
        k(   51) = (   0.1666667   0.1666667   0.2500000), wk =   0.0277778
        k(   52) = (   0.1666667   0.1666667   0.3333333), wk =   0.0277778
        k(   53) = (   0.1666667   0.1666667   0.4166667), wk =   0.0277778
        k(   54) = (   0.1666667   0.1666667  -0.5000000), wk =   0.0138889
        k(   55) = (   0.1666667   0.2500000   0.2500000), wk =   0.0277778
        k(   56) = (   0.1666667   0.2500000   0.3333333), wk =   0.0555556
        k(   57) = (   0.1666667   0.2500000   0.4166667), wk =   0.0555556
        k(   58) = (   0.1666667   0.2500000  -0.5000000), wk =   0.0277778
        k(   59) = (   0.1666667   0.3333333   0.3333333), wk =   0.0277778
        k(   60) = (   0.1666667   0.3333333   0.4166667), wk =   0.0555556
        k(   61) = (   0.1666667   0.3333333  -0.5000000), wk =   0.0277778
        k(   62) = (   0.1666667   0.4166667   0.4166667), wk =   0.0277778
        k(   63) = (   0.1666667   0.4166667  -0.5000000), wk =   0.0277778
        k(   64) = (   0.1666667  -0.5000000  -0.5000000), wk =   0.0069444
        k(   65) = (   0.2500000   0.2500000   0.2500000), wk =   0.0092593
        k(   66) = (   0.2500000   0.2500000   0.3333333), wk =   0.0277778
        k(   67) = (   0.2500000   0.2500000   0.4166667), wk =   0.0277778
        k(   68) = (   0.2500000   0.2500000  -0.5000000), wk =   0.0138889
        k(   69) = (   0.2500000   0.3333333   0.3333333), wk =   0.0277778
        k(   70) = (   0.2500000   0.3333333   0.4166667), wk =   0.0555556
        k(   71) = (   0.2500000   0.3333333  -0.5000000), wk =   0.0277778
        k(   72) = (   0.2500000   0.4166667   0.4166667), wk =   0.0277778
        k(   73) = (   0.2500000   0.4166667  -0.5000000), wk =   0.0277778
        k(   74) = (   0.2500000  -0.5000000  -0.5000000), wk =   0.0069444
        k(   75) = (   0.3333333   0.3333333   0.3333333), wk =   0.0092593
        k(   76) = (   0.3333333   0.3333333   0.4166667), wk =   0.0277778
        k(   77) = (   0.3333333   0.3333333  -0.5000000), wk =   0.0138889
        k(   78) = (   0.3333333   0.4166667   0.4166667), wk =   0.0277778
        k(   79) = (   0.3333333   0.4166667  -0.5000000), wk =   0.0277778
        k(   80) = (   0.3333333  -0.5000000  -0.5000000), wk =   0.0069444
        k(   81) = (   0.4166667   0.4166667   0.4166667), wk =   0.0092593
        k(   82) = (   0.4166667   0.4166667  -0.5000000), wk =   0.0138889
        k(   83) = (   0.4166667  -0.5000000  -0.5000000), wk =   0.0069444
        k(   84) = (  -0.5000000  -0.5000000  -0.5000000), wk =   0.0011574

                       cryst. coord.
        k(    1) = (   0.0000000   0.0000000   0.0000000), wk =   0.0011574
        k(    2) = (   0.0000000   0.0000000   0.0833333), wk =   0.0069444
        k(    3) = (   0.0000000   0.0000000   0.1666667), wk =   0.0069444
        k(    4) = (   0.0000000   0.0000000   0.2500000), wk =   0.0069444
        k(    5) = (   0.0000000   0.0000000   0.3333333), wk =   0.0069444
        k(    6) = (   0.0000000   0.0000000   0.4166667), wk =   0.0069444
        k(    7) = (   0.0000000   0.0000000  -0.5000000), wk =   0.0034722
        k(    8) = (   0.0000000   0.0833333   0.0833333), wk =   0.0138889
        k(    9) = (   0.0000000   0.0833333   0.1666667), wk =   0.0277778
        k(   10) = (   0.0000000   0.0833333   0.2500000), wk =   0.0277778
        k(   11) = (   0.0000000   0.0833333   0.3333333), wk =   0.0277778
        k(   12) = (   0.0000000   0.0833333   0.4166667), wk =   0.0277778
        k(   13) = (   0.0000000   0.0833333  -0.5000000), wk =   0.0138889
        k(   14) = (   0.0000000   0.1666667   0.1666667), wk =   0.0138889
        k(   15) = (   0.0000000   0.1666667   0.2500000), wk =   0.0277778
        k(   16) = (   0.0000000   0.1666667   0.3333333), wk =   0.0277778
        k(   17) = (   0.0000000   0.1666667   0.4166667), wk =   0.0277778
        k(   18) = (   0.0000000   0.1666667  -0.5000000), wk =   0.0138889
        k(   19) = (   0.0000000   0.2500000   0.2500000), wk =   0.0138889
        k(   20) = (   0.0000000   0.2500000   0.3333333), wk =   0.0277778
        k(   21) = (   0.0000000   0.2500000   0.4166667), wk =   0.0277778
        k(   22) = (   0.0000000   0.2500000  -0.5000000), wk =   0.0138889
        k(   23) = (   0.0000000   0.3333333   0.3333333), wk =   0.0138889
        k(   24) = (   0.0000000   0.3333333   0.4166667), wk =   0.0277778
        k(   25) = (   0.0000000   0.3333333  -0.5000000), wk =   0.0138889
        k(   26) = (   0.0000000   0.4166667   0.4166667), wk =   0.0138889
        k(   27) = (   0.0000000   0.4166667  -0.5000000), wk =   0.0138889
        k(   28) = (   0.0000000  -0.5000000  -0.5000000), wk =   0.0034722
        k(   29) = (   0.0833333   0.0833333   0.0833333), wk =   0.0092593
        k(   30) = (   0.0833333   0.0833333   0.1666667), wk =   0.0277778
        k(   31) = (   0.0833333   0.0833333   0.2500000), wk =   0.0277778
        k(   32) = (   0.0833333   0.0833333   0.3333333), wk =   0.0277778
        k(   33) = (   0.0833333   0.0833333   0.4166667), wk =   0.0277778
        k(   34) = (   0.0833333   0.0833333  -0.5000000), wk =   0.0138889
        k(   35) = (   0.0833333   0.1666667   0.1666667), wk =   0.0277778
        k(   36) = (   0.0833333   0.1666667   0.2500000), wk =   0.0555556
        k(   37) = (   0.0833333   0.1666667   0.3333333), wk =   0.0555556
        k(   38) = (   0.0833333   0.1666667   0.4166667), wk =   0.0555556
        k(   39) = (   0.0833333   0.1666667  -0.5000000), wk =   0.0277778
        k(   40) = (   0.0833333   0.2500000   0.2500000), wk =   0.0277778
        k(   41) = (   0.0833333   0.2500000   0.3333333), wk =   0.0555556
        k(   42) = (   0.0833333   0.2500000   0.4166667), wk =   0.0555556
        k(   43) = (   0.0833333   0.2500000  -0.5000000), wk =   0.0277778
        k(   44) = (   0.0833333   0.3333333   0.3333333), wk =   0.0277778
        k(   45) = (   0.0833333   0.3333333   0.4166667), wk =   0.0555556
        k(   46) = (   0.0833333   0.3333333  -0.5000000), wk =   0.0277778
        k(   47) = (   0.0833333   0.4166667   0.4166667), wk =   0.0277778
        k(   48) = (   0.0833333   0.4166667  -0.5000000), wk =   0.0277778
        k(   49) = (   0.0833333  -0.5000000  -0.5000000), wk =   0.0069444
        k(   50) = (   0.1666667   0.1666667   0.1666667), wk =   0.0092593
        k(   51) = (   0.1666667   0.1666667   0.2500000), wk =   0.0277778
        k(   52) = (   0.1666667   0.1666667   0.3333333), wk =   0.0277778
        k(   53) = (   0.1666667   0.1666667   0.4166667), wk =   0.0277778
        k(   54) = (   0.1666667   0.1666667  -0.5000000), wk =   0.0138889
        k(   55) = (   0.1666667   0.2500000   0.2500000), wk =   0.0277778
        k(   56) = (   0.1666667   0.2500000   0.3333333), wk =   0.0555556
        k(   57) = (   0.1666667   0.2500000   0.4166667), wk =   0.0555556
        k(   58) = (   0.1666667   0.2500000  -0.5000000), wk =   0.0277778
        k(   59) = (   0.1666667   0.3333333   0.3333333), wk =   0.0277778
        k(   60) = (   0.1666667   0.3333333   0.4166667), wk =   0.0555556
        k(   61) = (   0.1666667   0.3333333  -0.5000000), wk =   0.0277778
        k(   62) = (   0.1666667   0.4166667   0.4166667), wk =   0.0277778
        k(   63) = (   0.1666667   0.4166667  -0.5000000), wk =   0.0277778
        k(   64) = (   0.1666667  -0.5000000  -0.5000000), wk =   0.0069444
        k(   65) = (   0.2500000   0.2500000   0.2500000), wk =   0.0092593
        k(   66) = (   0.2500000   0.2500000   0.3333333), wk =   0.0277778
        k(   67) = (   0.2500000   0.2500000   0.4166667), wk =   0.0277778
        k(   68) = (   0.2500000   0.2500000  -0.5000000), wk =   0.0138889
        k(   69) = (   0.2500000   0.3333333   0.3333333), wk =   0.0277778
        k(   70) = (   0.2500000   0.3333333   0.4166667), wk =   0.0555556
        k(   71) = (   0.2500000   0.3333333  -0.5000000), wk =   0.0277778
        k(   72) = (   0.2500000   0.4166667   0.4166667), wk =   0.0277778
        k(   73) = (   0.2500000   0.4166667  -0.5000000), wk =   0.0277778
        k(   74) = (   0.2500000  -0.5000000  -0.5000000), wk =   0.0069444
        k(   75) = (   0.3333333   0.3333333   0.3333333), wk =   0.0092593
        k(   76) = (   0.3333333   0.3333333   0.4166667), wk =   0.0277778
        k(   77) = (   0.3333333   0.3333333  -0.5000000), wk =   0.0138889
        k(   78) = (   0.3333333   0.4166667   0.4166667), wk =   0.0277778
        k(   79) = (   0.3333333   0.4166667  -0.5000000), wk =   0.0277778
        k(   80) = (   0.3333333  -0.5000000  -0.5000000), wk =   0.0069444
        k(   81) = (   0.4166667   0.4166667   0.4166667), wk =   0.0092593
        k(   82) = (   0.4166667   0.4166667  -0.5000000), wk =   0.0138889
        k(   83) = (   0.4166667  -0.5000000  -0.5000000), wk =   0.0069444
        k(   84) = (  -0.5000000  -0.5000000  -0.5000000), wk =   0.0011574

     Dense  grid:    62669 G-vectors     FFT dimensions: (  50,  50,  50)

     Smooth grid:    27825 G-vectors     FFT dimensions: (  40,  40,  40)

     Dynamical RAM for                 wfc:       0.48 MB

     Dynamical RAM for     wfc (w. buffer):      40.58 MB

     Dynamical RAM for           str. fact:       0.48 MB

     Dynamical RAM for           local pot:       0.00 MB

     Dynamical RAM for          nlocal pot:       1.38 MB

     Dynamical RAM for                qrad:       2.89 MB

     Dynamical RAM for          rho,v,vnew:       1.46 MB

     Dynamical RAM for               rhoin:       0.49 MB

     Dynamical RAM for            rho*nmix:       3.82 MB

     Dynamical RAM for           G-vectors:       0.95 MB

     Dynamical RAM for          h,s,v(r/c):       0.06 MB

     Dynamical RAM for          <psi|beta>:       0.06 MB

     Dynamical RAM for                 psi:       0.95 MB

     Dynamical RAM for                hpsi:       0.95 MB

     Dynamical RAM for                spsi:       0.95 MB

     Dynamical RAM for      wfcinit/wfcrot:       0.98 MB

     Dynamical RAM for           addusdens:      45.42 MB

     Dynamical RAM for          addusforce:      46.99 MB

     Estimated static dynamical RAM per process >      54.00 MB

     Estimated max dynamical RAM per process >     100.99 MB

     Estimated total dynamical RAM >     403.95 MB

     Atomic positions and unit cell read from directory:
     ./tmp/ZnO.save/


     Check: negative core charge=   -0.000002

     The initial density is read from file :
     ./tmp/ZnO.save/charge-density

     Starting wfcs from file
     Checking if some PAW data can be deallocated... 
       PAW data deallocated on    2 nodes for type:  1
       PAW data deallocated on    2 nodes for type:  2

     total cpu time spent up to now is        1.7 secs

     Self-consistent Calculation

     iteration #  1     ecut=    47.00 Ry     beta= 0.60
     Davidson diagonalization with overlap
     ethr =  1.00E-05,  avg # of iterations =  5.8

     total cpu time spent up to now is       35.8 secs

     total energy              =   -1128.73731219 Ry
     estimated scf accuracy    <       0.01331654 Ry

     iteration #  2     ecut=    47.00 Ry     beta= 0.60
     Davidson diagonalization with overlap
     ethr =  1.85E-05,  avg # of iterations =  6.2

     total cpu time spent up to now is       67.5 secs

     total energy              =   -1128.74158142 Ry
     estimated scf accuracy    <       0.00240391 Ry

     iteration #  3     ecut=    47.00 Ry     beta= 0.60
     Davidson diagonalization with overlap
     ethr =  3.34E-06,  avg # of iterations =  4.5

     total cpu time spent up to now is       94.2 secs

     total energy              =   -1128.74219096 Ry
     estimated scf accuracy    <       0.00080687 Ry

     iteration #  4     ecut=    47.00 Ry     beta= 0.60
     Davidson diagonalization with overlap
     ethr =  1.12E-06,  avg # of iterations =  4.8

     total cpu time spent up to now is      116.4 secs

     total energy              =   -1128.74226740 Ry
     estimated scf accuracy    <       0.00020747 Ry

     iteration #  5     ecut=    47.00 Ry     beta= 0.60
     Davidson diagonalization with overlap
     ethr =  2.88E-07,  avg # of iterations =  4.9

     total cpu time spent up to now is      141.8 secs

     total energy              =   -1128.74233261 Ry
     estimated scf accuracy    <       0.00000057 Ry

     iteration #  6     ecut=    47.00 Ry     beta= 0.60
     Davidson diagonalization with overlap
     c_bands:  1 eigenvalues not converged
     c_bands:  1 eigenvalues not converged
     c_bands:  1 eigenvalues not converged
     c_bands:  1 eigenvalues not converged
     ethr =  7.85E-10,  avg # of iterations = 13.5

     total cpu time spent up to now is      216.7 secs

     total energy              =   -1128.74234237 Ry
     estimated scf accuracy    <       0.00003076 Ry

     iteration #  7     ecut=    47.00 Ry     beta= 0.60
     Davidson diagonalization with overlap
     ethr =  7.85E-10,  avg # of iterations =  9.9

     total cpu time spent up to now is      270.0 secs

     total energy              =   -1128.74234166 Ry
     estimated scf accuracy    <       0.00000678 Ry

     iteration #  8     ecut=    47.00 Ry     beta= 0.60
     Davidson diagonalization with overlap
     ethr =  7.85E-10,  avg # of iterations =  8.8

     total cpu time spent up to now is      317.4 secs

     total energy              =   -1128.74234242 Ry
     estimated scf accuracy    <       0.00000038 Ry

     iteration #  9     ecut=    47.00 Ry     beta= 0.60
     Davidson diagonalization with overlap
     ethr =  5.28E-10,  avg # of iterations =  1.7

     total cpu time spent up to now is      334.2 secs

     total energy              =   -1128.74234236 Ry
     estimated scf accuracy    <       0.00000029 Ry

     iteration # 10     ecut=    47.00 Ry     beta= 0.60
     Davidson diagonalization with overlap
     ethr =  4.01E-10,  avg # of iterations =  2.3

     total cpu time spent up to now is      360.1 secs

     total energy              =   -1128.74234234 Ry
     estimated scf accuracy    <       0.00000010 Ry

     iteration # 11     ecut=    47.00 Ry     beta= 0.60
     Davidson diagonalization with overlap
     ethr =  1.45E-10,  avg # of iterations =  6.5

     total cpu time spent up to now is      401.3 secs

     End of self-consistent calculation

          k = 0.0000 0.0000 0.0000 (  3431 PWs)   bands (ev):

   -10.8775  -9.9384  -9.9384  -9.9384   0.8954   0.8954   0.8954   1.4337
     1.4337   1.4337   2.3311   2.3311   2.3311   2.3311   2.3311   2.3311
     2.7937   2.7937   2.7946   2.7946   2.7946   2.9495   2.9495   2.9495
     3.9790   3.9790   3.9790   4.9343   4.9343   4.9343   4.9343   4.9343
     4.9343   7.2118   7.2118   7.2118

     occupation numbers 
     1.0000   1.0000   1.0000   1.0000   1.0000   1.0000   1.0000   1.0000
     1.0000   1.0000   1.0000   1.0000   1.0000   1.0000   1.0000   1.0000
     1.0000   1.0000   1.0000   1.0000   1.0000   1.0000   1.0000   1.0000
     1.0000   1.0000   1.0000   1.0000   1.0000   1.0000   1.0000   1.0000
     1.0000   1.0000   1.0000   1.0000

          k = 0.0000 0.0000 0.0833 (  3463 PWs)   bands (ev):

   -10.8622  -9.9551  -9.9382  -9.9382   0.8935   0.9198   0.9198   1.4151
     1.4434   1.4434   2.3034   2.3034   2.3222   2.3222   2.3256   2.3256
     2.7698   2.7881   2.7964   2.8208   2.8208   2.9429   2.9429   2.9466
     3.9373   3.9373   4.0470   4.8862   4.8862   4.9502   4.9503   4.9834
     4.9834   6.9511   7.1772   7.1772

     occupation numbers 
     1.0000   1.0000   1.0000   1.0000   1.0000   1.0000   1.0000   1.0000
     1.0000   1.0000   1.0000   1.0000   1.0000   1.0000   1.0000   1.0000
     1.0000   1.0000   1.0000   1.0000   1.0000   1.0000   1.0000   1.0000
     1.0000   1.0000   1.0000   1.0000   1.0000   1.0000   1.0000   1.0000
     1.0000   1.0000   1.0000   1.0000

          k = 0.0000 0.0000 0.1667 (  3483 PWs)   bands (ev):

   -10.8172 -10.0038  -9.9375  -9.9375   0.8908   0.9911   0.9911   1.3615
     1.4716   1.4716   2.2282   2.2282   2.3022   2.3022   2.3081   2.3081
     2.7161   2.7711   2.8041   2.8940   2.8940   2.9231   2.9231   2.9386
     3.8313   3.8313   4.2254   4.7539   4.7539   4.9880   4.9880   5.1228
     5.1228   6.5704   7.0753   7.0753

     occupation numbers 
     1.0000   1.0000   1.0000   1.0000   1.0000   1.0000   1.0000   1.0000
     1.0000   1.0000   1.0000   1.0000   1.0000   1.0000   1.0000   1.0000
     1.0000   1.0000   1.0000   1.0000   1.0000   1.0000   1.0000   1.0000
     1.0000   1.0000   1.0000   1.0000   1.0000   1.0000   1.0000   1.0000
     1.0000   1.0000   1.0000   1.0000

          k = 0.0000 0.0000 0.2500 (  3495 PWs)   bands (ev):

   -10.7451 -10.0808  -9.9366  -9.9366   0.8943   1.1010   1.1010   1.2819
     1.5186   1.5186   2.1225   2.1225   2.2740   2.2740   2.2794   2.2794
     2.6676   2.7457   2.8164   2.8881   2.8881   2.9264   3.0016   3.0016
     3.7015   3.7015   4.4673   4.5663   4.5663   5.0292   5.0292   5.3326
     5.3326   6.2143   6.9122   6.9122

     occupation numbers 
     1.0000   1.0000   1.0000   1.0000   1.0000   1.0000   1.0000   1.0000
     1.0000   1.0000   1.0000   1.0000   1.0000   1.0000   1.0000   1.0000
     1.0000   1.0000   1.0000   1.0000   1.0000   1.0000   1.0000   1.0000
     1.0000   1.0000   1.0000   1.0000   1.0000   1.0000   1.0000   1.0000
     1.0000   1.0000   1.0000   1.0000

          k = 0.0000 0.0000 0.3333 (  3499 PWs)   bands (ev):

   -10.6504 -10.1806  -9.9357  -9.9357   0.9121   1.1886   1.2337   1.2337
     1.5844   1.5844   2.0023   2.0023   2.2194   2.2194   2.2604   2.2604
     2.6408   2.7149   2.8325   2.8427   2.8427   2.9102   3.1277   3.1277
     3.5888   3.5888   4.3620   4.3620   4.7376   5.0627   5.0627   5.5896
     5.5896   5.8896   6.6973   6.6973

     occupation numbers 
     1.0000   1.0000   1.0000   1.0000   1.0000   1.0000   1.0000   1.0000
     1.0000   1.0000   1.0000   1.0000   1.0000   1.0000   1.0000   1.0000
     1.0000   1.0000   1.0000   1.0000   1.0000   1.0000   1.0000   1.0000
     1.0000   1.0000   1.0000   1.0000   1.0000   1.0000   1.0000   1.0000
     1.0000   1.0000   1.0000   1.0000

          k = 0.0000 0.0000 0.4167 (  3490 PWs)   bands (ev):

   -10.5390 -10.2957  -9.9350  -9.9350   0.9510   1.0950   1.3561   1.3561
     1.6681   1.6681   1.8813   1.8813   2.1536   2.1536   2.2481   2.2481
     2.6381   2.6823   2.8031   2.8031   2.8512   2.8914   3.2449   3.2449
     3.5177   3.5177   4.1891   4.1891   5.0176   5.0836   5.0836   5.5884
     5.8726   5.8726   6.4428   6.4428

     occupation numbers 
     1.0000   1.0000   1.0000   1.0000   1.0000   1.0000   1.0000   1.0000
     1.0000   1.0000   1.0000   1.0000   1.0000   1.0000   1.0000   1.0000
     1.0000   1.0000   1.0000   1.0000   1.0000   1.0000   1.0000   1.0000
     1.0000   1.0000   1.0000   1.0000   1.0000   1.0000   1.0000   1.0000
     1.0000   1.0000   1.0000   1.0000

          k = 0.0000 0.0000-0.5000 (  3514 PWs)   bands (ev):

   -10.4181 -10.4181  -9.9347  -9.9347   1.0129   1.0129   1.4105   1.4105
     1.7677   1.7677   1.7677   1.7677   2.1194   2.1194   2.2440   2.2440
     2.6541   2.6541   2.7874   2.7874   2.8709   2.8709   3.2982   3.2982
     3.4943   3.4943   4.1158   4.1158   5.0906   5.0906   5.3003   5.3003
     6.1626   6.1626   6.1626   6.1626

     occupation numbers 
     1.0000   1.0000   1.0000   1.0000   1.0000   1.0000   1.0000   1.0000
     1.0000   1.0000   1.0000   1.0000   1.0000   1.0000   1.0000   1.0000
     1.0000   1.0000   1.0000   1.0000   1.0000   1.0000   1.0000   1.0000
     1.0000   1.0000   1.0000   1.0000   1.0000   1.0000   1.0000   1.0000
     1.0000   1.0000   1.0000   1.0000

          k = 0.0000 0.0833 0.0833 (  3485 PWs)   bands (ev):

   -10.8471  -9.9545  -9.9545  -9.9382   0.9179   0.9179   0.9436   1.4025
     1.4473   1.4522   2.2878   2.2879   2.3022   2.3036   2.3036   2.3346
     2.7868   2.7946   2.7946   2.7950   2.8457   2.9371   2.9412   2.9412
     3.8858   4.0044   4.0044   4.8164   4.9364   4.9364   5.0007   5.0008
     5.0031   6.7553   7.1419   7.1924

     occupation numbers 
     1.0000   1.0000   1.0000   1.0000   1.0000   1.0000   1.0000   1.0000
     1.0000   1.0000   1.0000   1.0000   1.0000   1.0000   1.0000   1.0000
     1.0000   1.0000   1.0000   1.0000   1.0000   1.0000   1.0000   1.0000
     1.0000   1.0000   1.0000   1.0000   1.0000   1.0000   1.0000   1.0000
     1.0000   1.0000   1.0000   1.0000

          k = 0.0000 0.0833 0.1667 (  3491 PWs)   bands (ev):

   -10.8027 -10.0023  -9.9529  -9.9383   0.9149   0.9891   1.0123   1.3543
     1.4723   1.4790   2.2072   2.2316   2.2474   2.2682   2.3045   2.3387
     2.7385   2.7722   2.8016   2.8599   2.9104   2.9240   2.9259   2.9355
     3.7535   3.8956   4.1786   4.6979   4.8072   5.0418   5.0663   5.0775
     5.1451   6.4245   7.0382   7.1222

     occupation numbers 
     1.0000   1.0000   1.0000   1.0000   1.0000   1.0000   1.0000   1.0000
     1.0000   1.0000   1.0000   1.0000   1.0000   1.0000   1.0000   1.0000
     1.0000   1.0000   1.0000   1.0000   1.0000   1.0000   1.0000   1.0000
     1.0000   1.0000   1.0000   1.0000   1.0000   1.0000   1.0000   1.0000
     1.0000   1.0000   1.0000   1.0000

          k = 0.0000 0.0833 0.2500 (  3488 PWs)   bands (ev):

   -10.7316 -10.0779  -9.9505  -9.9386   0.9172   1.1001   1.1185   1.2794
     1.5183   1.5237   2.1002   2.1256   2.1905   2.2218   2.3061   2.3388
     2.6867   2.7479   2.8143   2.8812   2.8835   2.9252   2.9641   3.0219
     3.5907   3.7602   4.4117   4.5539   4.6266   5.0876   5.1159   5.2879
     5.3644   6.0918   6.8726   6.9720

     occupation numbers 
     1.0000   1.0000   1.0000   1.0000   1.0000   1.0000   1.0000   1.0000
     1.0000   1.0000   1.0000   1.0000   1.0000   1.0000   1.0000   1.0000
     1.0000   1.0000   1.0000   1.0000   1.0000   1.0000   1.0000   1.0000
     1.0000   1.0000   1.0000   1.0000   1.0000   1.0000   1.0000   1.0000
     1.0000   1.0000   1.0000   1.0000

          k = 0.0000 0.0833 0.3333 (  3487 PWs)   bands (ev):

   -10.6383 -10.1759  -9.9477  -9.9393   0.9327   1.1911   1.2351   1.2463
     1.5832   1.5863   1.9832   2.0042   2.1234   2.1607   2.3091   2.3354
     2.6561   2.7185   2.8291   2.8311   2.8395   2.9103   3.0660   3.1481
     3.4484   3.6352   4.4030   4.4357   4.6702   5.1263   5.1487   5.5445
     5.6335   5.7800   6.6552   6.7629

     occupation numbers 
     1.0000   1.0000   1.0000   1.0000   1.0000   1.0000   1.0000   1.0000
     1.0000   1.0000   1.0000   1.0000   1.0000   1.0000   1.0000   1.0000
     1.0000   1.0000   1.0000   1.0000   1.0000   1.0000   1.0000   1.0000
     1.0000   1.0000   1.0000   1.0000   1.0000   1.0000   1.0000   1.0000
     1.0000   1.0000   1.0000   1.0000

          k = 0.0000 0.0833 0.4167 (  3480 PWs)   bands (ev):

   -10.5285 -10.2891  -9.9449  -9.9406   0.9680   1.1027   1.3617   1.3651
     1.6644   1.6679   1.8671   1.8818   2.0596   2.0879   2.3140   2.3290
     2.6495   2.6878   2.7816   2.7925   2.8508   2.8918   3.1620   3.2599
     3.3700   3.5346   4.2782   4.2843   4.9379   5.1529   5.1651   5.4884
     5.8270   5.9278   6.3986   6.5094

     occupation numbers 
     1.0000   1.0000   1.0000   1.0000   1.0000   1.0000   1.0000   1.0000
     1.0000   1.0000   1.0000   1.0000   1.0000   1.0000   1.0000   1.0000
     1.0000   1.0000   1.0000   1.0000   1.0000   1.0000   1.0000   1.0000
     1.0000   1.0000   1.0000   1.0000   1.0000   1.0000   1.0000   1.0000
     1.0000   1.0000   1.0000   1.0000

          k = 0.0000 0.0833-0.5000 (  3478 PWs)   bands (ev):

   -10.4094 -10.4094  -9.9425  -9.9425   1.0257   1.0257   1.4187   1.4187
     1.7594   1.7594   1.7678   1.7678   2.0391   2.0391   2.3210   2.3210
     2.6624   2.6624   2.7672   2.7673   2.8715   2.8715   3.2375   3.2375
     3.4390   3.4390   4.2260   4.2260   5.1661   5.1661   5.2098   5.2098
     6.1173   6.1173   6.2258   6.2258

     occupation numbers 
     1.0000   1.0000   1.0000   1.0000   1.0000   1.0000   1.0000   1.0000
     1.0000   1.0000   1.0000   1.0000   1.0000   1.0000   1.0000   1.0000
     1.0000   1.0000   1.0000   1.0000   1.0000   1.0000   1.0000   1.0000
     1.0000   1.0000   1.0000   1.0000   1.0000   1.0000   1.0000   1.0000
     1.0000   1.0000   1.0000   1.0000

          k = 0.0000 0.1667 0.1667 (  3489 PWs)   bands (ev):

   -10.7601  -9.9980  -9.9980  -9.9406   0.9855   0.9855   1.0739   1.3246
     1.4857   1.5013   2.1526   2.1526   2.2250   2.2419   2.2419   2.3724
     2.7684   2.7928   2.7928   2.8006   2.9066   2.9266   2.9266   2.9738
     3.5608   4.0579   4.0579   4.6126   4.9537   4.9537   5.1925   5.1981
     5.1981   6.1392   6.9296   7.1323

     occupation numbers 
     1.0000   1.0000   1.0000   1.0000   1.0000   1.0000   1.0000   1.0000
     1.0000   1.0000   1.0000   1.0000   1.0000   1.0000   1.0000   1.0000
     1.0000   1.0000   1.0000   1.0000   1.0000   1.0000   1.0000   1.0000
     1.0000   1.0000   1.0000   1.0000   1.0000   1.0000   1.0000   1.0000
     1.0000   1.0000   1.0000   1.0000

          k = 0.0000 0.1667 0.2500 (  3492 PWs)   bands (ev):

   -10.6920 -10.0695  -9.9914  -9.9446   0.9850   1.0975   1.1686   1.2685
     1.5229   1.5388   2.0425   2.0786   2.1354   2.1717   2.2597   2.4085
     2.7320   2.7511   2.8113   2.8431   2.8721   2.9217   2.9240   3.0606
     3.3413   3.9021   4.2701   4.5307   4.7833   5.1655   5.2586   5.2939
     5.4383   5.8338   6.7575   7.0419

     occupation numbers 
     1.0000   1.0000   1.0000   1.0000   1.0000   1.0000   1.0000   1.0000
     1.0000   1.0000   1.0000   1.0000   1.0000   1.0000   1.0000   1.0000
     1.0000   1.0000   1.0000   1.0000   1.0000   1.0000   1.0000   1.0000
     1.0000   1.0000   1.0000   1.0000   1.0000   1.0000   1.0000   1.0000
     1.0000   1.0000   1.0000   1.0000

          k = 0.0000 0.1667 0.3333 (  3481 PWs)   bands (ev):

   -10.6027 -10.1623  -9.9832  -9.9501   0.9944   1.1977   1.2381   1.2826
     1.5827   1.5922   1.9322   1.9978   2.0096   2.1015   2.2872   2.4410
     2.6931   2.7269   2.7909   2.8294   2.8303   2.9105   2.9653   3.1288
     3.2278   3.7440   4.4560   4.5044   4.6076   5.3126   5.3557   5.4198
     5.5400   5.7312   6.5336   6.8681

     occupation numbers 
     1.0000   1.0000   1.0000   1.0000   1.0000   1.0000   1.0000   1.0000
     1.0000   1.0000   1.0000   1.0000   1.0000   1.0000   1.0000   1.0000
     1.0000   1.0000   1.0000   1.0000   1.0000   1.0000   1.0000   1.0000
     1.0000   1.0000   1.0000   1.0000   1.0000   1.0000   1.0000   1.0000
     1.0000   1.0000   1.0000   1.0000

          k = 0.0000 0.1667 0.4167 (  3475 PWs)   bands (ev):

   -10.4978 -10.2698  -9.9743  -9.9571   1.0198   1.1259   1.3764   1.3907
     1.6551   1.6677   1.8291   1.8833   1.9313   2.0100   2.3279   2.4398
     2.6781   2.7017   2.7126   2.7788   2.8509   2.8937   3.0147   3.0849
     3.3303   3.5995   4.4037   4.4693   4.7490   5.2634   5.3537   5.3811
     5.6994   6.0446   6.2722   6.6322

     occupation numbers 
     1.0000   1.0000   1.0000   1.0000   1.0000   1.0000   1.0000   1.0000
     1.0000   1.0000   1.0000   1.0000   1.0000   1.0000   1.0000   1.0000
     1.0000   1.0000   1.0000   1.0000   1.0000   1.0000   1.0000   1.0000
     1.0000   1.0000   1.0000   1.0000   1.0000   1.0000   1.0000   1.0000
     1.0000   1.0000   1.0000   1.0000

          k = 0.0000 0.1667-0.5000 (  3478 PWs)   bands (ev):

   -10.3843 -10.3843  -9.9653  -9.9653   1.0643   1.0643   1.4415   1.4415
     1.7362   1.7362   1.7673   1.7673   1.9295   1.9295   2.3850   2.3850
     2.6831   2.6831   2.7233   2.7233   2.8730   2.8731   3.0510   3.0510
     3.4639   3.4639   4.4003   4.4003   5.0012   5.0012   5.3780   5.3780
     5.9889   5.9889   6.3518   6.3518

     occupation numbers 
     1.0000   1.0000   1.0000   1.0000   1.0000   1.0000   1.0000   1.0000
     1.0000   1.0000   1.0000   1.0000   1.0000   1.0000   1.0000   1.0000
     1.0000   1.0000   1.0000   1.0000   1.0000   1.0000   1.0000   1.0000
     1.0000   1.0000   1.0000   1.0000   1.0000   1.0000   1.0000   1.0000
     1.0000   1.0000   1.0000   1.0000

          k = 0.0000 0.2500 0.2500 (  3487 PWs)   bands (ev):

   -10.6288 -10.0564 -10.0564  -9.9544   1.0953   1.0953   1.2437   1.2452
     1.5449   1.5645   1.9650   1.9650   2.1201   2.1522   2.1522   2.4842
     2.7470   2.7789   2.7789   2.8163   2.8655   2.9188   2.9188   2.9536
     3.2166   4.0865   4.0865   4.5076   4.9958   4.9958   5.4642   5.5211
     5.5211   5.5463   6.5770   7.0266

     occupation numbers 
     1.0000   1.0000   1.0000   1.0000   1.0000   1.0000   1.0000   1.0000
     1.0000   1.0000   1.0000   1.0000   1.0000   1.0000   1.0000   1.0000
     1.0000   1.0000   1.0000   1.0000   1.0000   1.0000   1.0000   1.0000
     1.0000   1.0000   1.0000   1.0000   1.0000   1.0000   1.0000   1.0000
     1.0000   1.0000   1.0000   1.0000

          k = 0.0000 0.2500 0.3333 (  3484 PWs)   bands (ev):

   -10.5459 -10.1410 -10.0398  -9.9676   1.0969   1.2062   1.2402   1.3378
     1.5912   1.6022   1.8626   1.8815   2.0181   2.0539   2.1778   2.5512
     2.6756   2.7334   2.7335   2.8001   2.8330   2.8874   2.9127   2.9210
     3.2958   3.8933   4.2943   4.4935   4.8159   5.2425   5.2655   5.5863
     5.5937   5.8348   6.3458   6.9146

     occupation numbers 
     1.0000   1.0000   1.0000   1.0000   1.0000   1.0000   1.0000   1.0000
     1.0000   1.0000   1.0000   1.0000   1.0000   1.0000   1.0000   1.0000
     1.0000   1.0000   1.0000   1.0000   1.0000   1.0000   1.0000   1.0000
     1.0000   1.0000   1.0000   1.0000   1.0000   1.0000   1.0000   1.0000
     1.0000   1.0000   1.0000   1.0000

          k = 0.0000 0.2500 0.4167 (  3472 PWs)   bands (ev):

   -10.4490 -10.2393 -10.0212  -9.9838   1.1076   1.1652   1.3949   1.4289
     1.6453   1.6689   1.7761   1.8149   1.8848   1.9518   2.2173   2.4157
     2.6660   2.7108   2.7174   2.7833   2.8558   2.8992   2.9021   2.9248
     3.4126   3.7116   4.5032   4.5171   4.6611   5.0007   5.5134   5.6456
     5.6522   6.0803   6.1588   6.7202

     occupation numbers 
     1.0000   1.0000   1.0000   1.0000   1.0000   1.0000   1.0000   1.0000
     1.0000   1.0000   1.0000   1.0000   1.0000   1.0000   1.0000   1.0000
     1.0000   1.0000   1.0000   1.0000   1.0000   1.0000   1.0000   1.0000
     1.0000   1.0000   1.0000   1.0000   1.0000   1.0000   1.0000   1.0000
     1.0000   1.0000   1.0000   1.0000

          k = 0.0000 0.2500-0.5000 (  3476 PWs)   bands (ev):

   -10.3444 -10.3444 -10.0021 -10.0021   1.1304   1.1304   1.4753   1.4753
     1.7043   1.7043   1.7662   1.7662   1.8335   1.8335   2.2854   2.2854
     2.7073   2.7073   2.7344   2.7344   2.8792   2.8792   2.9179   2.9179
     3.5511   3.5511   4.5550   4.5550   4.7521   4.7521   5.6684   5.6684
     5.7974   5.7974   6.4618   6.4618

     occupation numbers 
     1.0000   1.0000   1.0000   1.0000   1.0000   1.0000   1.0000   1.0000
     1.0000   1.0000   1.0000   1.0000   1.0000   1.0000   1.0000   1.0000
     1.0000   1.0000   1.0000   1.0000   1.0000   1.0000   1.0000   1.0000
     1.0000   1.0000   1.0000   1.0000   1.0000   1.0000   1.0000   1.0000
     1.0000   1.0000   1.0000   1.0000

          k = 0.0000 0.3333 0.3333 (  3479 PWs)   bands (ev):

   -10.4719 -10.1138 -10.1138  -9.9911   1.2138   1.2386   1.2386   1.4052
     1.6168   1.6195   1.7869   1.7869   2.0073   2.0298   2.0298   2.3892
     2.6742   2.7326   2.7612   2.7612   2.8216   2.8474   2.9150   2.9150
     3.3973   4.0739   4.0739   4.5359   4.9939   5.0461   5.0461   5.7777
     5.9178   5.9178   6.1095   6.8701

     occupation numbers 
     1.0000   1.0000   1.0000   1.0000   1.0000   1.0000   1.0000   1.0000
     1.0000   1.0000   1.0000   1.0000   1.0000   1.0000   1.0000   1.0000
     1.0000   1.0000   1.0000   1.0000   1.0000   1.0000   1.0000   1.0000
     1.0000   1.0000   1.0000   1.0000   1.0000   1.0000   1.0000   1.0000
     1.0000   1.0000   1.0000   1.0000

          k = 0.0000 0.3333 0.4167 (  3480 PWs)   bands (ev):

   -10.3855 -10.2001 -10.0828 -10.0193   1.2200   1.2330   1.4064   1.4746
     1.6388   1.6765   1.7176   1.7224   1.8859   1.9148   2.0459   2.1607
     2.7273   2.7358   2.7520   2.7721   2.8269   2.8696   2.9076   2.9078
     3.5229   3.8638   4.2775   4.6035   4.7377   4.8613   5.2985   5.8442
     5.9048   5.9652   6.2370   6.7337

     occupation numbers 
     1.0000   1.0000   1.0000   1.0000   1.0000   1.0000   1.0000   1.0000
     1.0000   1.0000   1.0000   1.0000   1.0000   1.0000   1.0000   1.0000
     1.0000   1.0000   1.0000   1.0000   1.0000   1.0000   1.0000   1.0000
     1.0000   1.0000   1.0000   1.0000   1.0000   1.0000   1.0000   1.0000
     1.0000   1.0000   1.0000   1.0000

          k = 0.0000 0.3333-0.5000 (  3462 PWs)   bands (ev):

   -10.2928 -10.2928 -10.0505 -10.0505   1.2262   1.2262   1.5125   1.5125
     1.6706   1.6706   1.7522   1.7522   1.7659   1.7659   2.0747   2.0747
     2.7262   2.7262   2.7714   2.7714   2.8754   2.8754   2.8919   2.8919
     3.6780   3.6780   4.4991   4.4991   4.7105   4.7105   5.5685   5.5685
     5.9647   5.9647   6.5170   6.5170

     occupation numbers 
     1.0000   1.0000   1.0000   1.0000   1.0000   1.0000   1.0000   1.0000
     1.0000   1.0000   1.0000   1.0000   1.0000   1.0000   1.0000   1.0000
     1.0000   1.0000   1.0000   1.0000   1.0000   1.0000   1.0000   1.0000
     1.0000   1.0000   1.0000   1.0000   1.0000   1.0000   1.0000   1.0000
     1.0000   1.0000   1.0000   1.0000

          k = 0.0000 0.4167 0.4167 (  3468 PWs)   bands (ev):

   -10.3119 -10.1551 -10.1551 -10.0614   1.2857   1.3949   1.3949   1.5218
     1.6361   1.6634   1.6634   1.7047   1.8827   1.8865   1.8865   1.8984
     2.7320   2.7513   2.7513   2.7805   2.8473   2.8890   2.9116   2.9117
     3.6651   4.0484   4.0484   4.4885   4.7283   5.0828   5.0828   5.5865
     6.0984   6.2607   6.2607   6.6598

     occupation numbers 
     1.0000   1.0000   1.0000   1.0000   1.0000   1.0000   1.0000   1.0000
     1.0000   1.0000   1.0000   1.0000   1.0000   1.0000   1.0000   1.0000
     1.0000   1.0000   1.0000   1.0000   1.0000   1.0000   1.0000   1.0000
     1.0000   1.0000   1.0000   1.0000   1.0000   1.0000   1.0000   1.0000
     1.0000   1.0000   1.0000   1.0000

          k = 0.0000 0.4167-0.5000 (  3476 PWs)   bands (ev):

   -10.2332 -10.2332 -10.1078 -10.1078   1.3506   1.3506   1.5407   1.5407
     1.6396   1.6396   1.6702   1.6702   1.7709   1.7709   1.8885   1.8885
     2.7378   2.7378   2.7635   2.7635   2.8954   2.8954   2.9056   2.9056
     3.8414   3.8414   4.2579   4.2579   4.8884   4.8884   5.3274   5.3274
     6.2172   6.2172   6.4988   6.4988

     occupation numbers 
     1.0000   1.0000   1.0000   1.0000   1.0000   1.0000   1.0000   1.0000
     1.0000   1.0000   1.0000   1.0000   1.0000   1.0000   1.0000   1.0000
     1.0000   1.0000   1.0000   1.0000   1.0000   1.0000   1.0000   1.0000
     1.0000   1.0000   1.0000   1.0000   1.0000   1.0000   1.0000   1.0000
     1.0000   1.0000   1.0000   1.0000

          k = 0.0000-0.5000-0.5000 (  3468 PWs)   bands (ev):

   -10.1701 -10.1701 -10.1701 -10.1701   1.4881   1.4881   1.4881   1.4881
     1.6199   1.6199   1.6199   1.6199   1.7975   1.7975   1.7975   1.7975
     2.7486   2.7486   2.7486   2.7486   2.9099   2.9099   2.9099   2.9099
     4.0368   4.0368   4.0368   4.0368   5.0959   5.0959   5.0959   5.0959
     6.3989   6.3989   6.3989   6.3989

     occupation numbers 
     1.0000   1.0000   1.0000   1.0000   1.0000   1.0000   1.0000   1.0000
     1.0000   1.0000   1.0000   1.0000   1.0000   1.0000   1.0000   1.0000
     1.0000   1.0000   1.0000   1.0000   1.0000   1.0000   1.0000   1.0000
     1.0000   1.0000   1.0000   1.0000   1.0000   1.0000   1.0000   1.0000
     1.0000   1.0000   1.0000   1.0000

          k = 0.0833 0.0833 0.0833 (  3482 PWs)   bands (ev):

   -10.8322  -9.9542  -9.9542  -9.9542   0.9415   0.9415   0.9415   1.3903
     1.4562   1.4562   2.2756   2.2756   2.2756   2.3031   2.3031   2.3031
     2.7897   2.7897   2.8187   2.8187   2.8187   2.9363   2.9363   2.9363
     3.9519   3.9519   3.9519   4.8737   4.8737   4.8737   5.0492   5.0492
     5.0492   6.5955   7.1590   7.1590

     occupation numbers 
     1.0000   1.0000   1.0000   1.0000   1.0000   1.0000   1.0000   1.0000
     1.0000   1.0000   1.0000   1.0000   1.0000   1.0000   1.0000   1.0000
     1.0000   1.0000   1.0000   1.0000   1.0000   1.0000   1.0000   1.0000
     1.0000   1.0000   1.0000   1.0000   1.0000   1.0000   1.0000   1.0000
     1.0000   1.0000   1.0000   1.0000

          k = 0.0833 0.0833 0.1667 (  3486 PWs)   bands (ev):

   -10.7884 -10.0010  -9.9534  -9.9534   0.9382   1.0105   1.0105   1.3464
     1.4779   1.4827   2.2034   2.2192   2.2359   2.2359   2.3091   2.3091
     2.7604   2.7742   2.7984   2.8802   2.8802   2.9232   2.9232   2.9324
     3.8176   3.8176   4.1217   4.7627   4.7627   5.0351   5.1119   5.1119
     5.1806   6.2930   7.0606   7.1060

     occupation numbers 
     1.0000   1.0000   1.0000   1.0000   1.0000   1.0000   1.0000   1.0000
     1.0000   1.0000   1.0000   1.0000   1.0000   1.0000   1.0000   1.0000
     1.0000   1.0000   1.0000   1.0000   1.0000   1.0000   1.0000   1.0000
     1.0000   1.0000   1.0000   1.0000   1.0000   1.0000   1.0000   1.0000
     1.0000   1.0000   1.0000   1.0000

          k = 0.0833 0.0833 0.2500 (  3489 PWs)   bands (ev):

   -10.7184 -10.0753  -9.9522  -9.9522   0.9393   1.1175   1.1175   1.2762
     1.5202   1.5271   2.1016   2.1060   2.1771   2.1771   2.3211   2.3211
     2.7055   2.7505   2.8119   2.8799   2.8799   2.9236   2.9818   2.9819
     3.6511   3.6511   4.3460   4.6267   4.6267   5.1644   5.1644   5.2757
     5.3798   5.9752   6.9029   6.9619

     occupation numbers 
     1.0000   1.0000   1.0000   1.0000   1.0000   1.0000   1.0000   1.0000
     1.0000   1.0000   1.0000   1.0000   1.0000   1.0000   1.0000   1.0000
     1.0000   1.0000   1.0000   1.0000   1.0000   1.0000   1.0000   1.0000
     1.0000   1.0000   1.0000   1.0000   1.0000   1.0000   1.0000   1.0000
     1.0000   1.0000   1.0000   1.0000

          k = 0.0833 0.0833 0.3333 (  3488 PWs)   bands (ev):

   -10.6264 -10.1715  -9.9511  -9.9511   0.9526   1.1930   1.2477   1.2477
     1.5816   1.5892   1.9838   1.9868   2.1047   2.1047   2.3370   2.3370
     2.6712   2.7224   2.8281   2.8281   2.8297   2.9099   3.0831   3.0831
     3.5023   3.5023   4.4866   4.4866   4.5939   5.2021   5.2021   5.5661
     5.6257   5.6721   6.6951   6.7501

     occupation numbers 
     1.0000   1.0000   1.0000   1.0000   1.0000   1.0000   1.0000   1.0000
     1.0000   1.0000   1.0000   1.0000   1.0000   1.0000   1.0000   1.0000
     1.0000   1.0000   1.0000   1.0000   1.0000   1.0000   1.0000   1.0000
     1.0000   1.0000   1.0000   1.0000   1.0000   1.0000   1.0000   1.0000
     1.0000   1.0000   1.0000   1.0000

          k = 0.0833 0.0833 0.4167 (  3473 PWs)   bands (ev):

   -10.5183 -10.2827  -9.9502  -9.9502   0.9845   1.1097   1.3705   1.3705
     1.6603   1.6686   1.8646   1.8712   2.0301   2.0301   2.3530   2.3530
     2.6610   2.6935   2.7716   2.7716   2.8502   2.8920   3.1740   3.1740
     3.4017   3.4017   4.3758   4.3758   4.8515   5.2242   5.2242   5.3869
     5.8792   5.8980   6.4488   6.4884

     occupation numbers 
     1.0000   1.0000   1.0000   1.0000   1.0000   1.0000   1.0000   1.0000
     1.0000   1.0000   1.0000   1.0000   1.0000   1.0000   1.0000   1.0000
     1.0000   1.0000   1.0000   1.0000   1.0000   1.0000   1.0000   1.0000
     1.0000   1.0000   1.0000   1.0000   1.0000   1.0000   1.0000   1.0000
     1.0000   1.0000   1.0000   1.0000

          k = 0.0833 0.0833-0.5000 (  3472 PWs)   bands (ev):

   -10.4011 -10.4011  -9.9499  -9.9499   1.0377   1.0377   1.4266   1.4266
     1.7554   1.7555   1.7634   1.7634   1.9928   1.9928   2.3604   2.3604
     2.6706   2.6706   2.7459   2.7459   2.8714   2.8714   3.2170   3.2170
     3.3619   3.3619   4.3325   4.3325   5.1150   5.1150   5.2315   5.2315
     6.1779   6.1779   6.1928   6.1928

     occupation numbers 
     1.0000   1.0000   1.0000   1.0000   1.0000   1.0000   1.0000   1.0000
     1.0000   1.0000   1.0000   1.0000   1.0000   1.0000   1.0000   1.0000
     1.0000   1.0000   1.0000   1.0000   1.0000   1.0000   1.0000   1.0000
     1.0000   1.0000   1.0000   1.0000   1.0000   1.0000   1.0000   1.0000
     1.0000   1.0000   1.0000   1.0000

          k = 0.0833 0.1667 0.1667 (  3486 PWs)   bands (ev):

   -10.7464  -9.9975  -9.9975  -9.9548   1.0067   1.0067   1.0723   1.3169
     1.4929   1.5037   2.1533   2.1533   2.2011   2.2280   2.2281   2.3260
     2.7723   2.7962   2.8137   2.8137   2.9093   2.9236   2.9236   2.9387
     3.6260   3.9767   3.9767   4.6914   4.9408   4.9408   5.2310   5.2444
     5.2444   6.0215   6.9753   7.1023

     occupation numbers 
     1.0000   1.0000   1.0000   1.0000   1.0000   1.0000   1.0000   1.0000
     1.0000   1.0000   1.0000   1.0000   1.0000   1.0000   1.0000   1.0000
     1.0000   1.0000   1.0000   1.0000   1.0000   1.0000   1.0000   1.0000
     1.0000   1.0000   1.0000   1.0000   1.0000   1.0000   1.0000   1.0000
     1.0000   1.0000   1.0000   1.0000

          k = 0.0833 0.1667 0.2500 (  3492 PWs)   bands (ev):

   -10.6794 -10.0676  -9.9922  -9.9573   1.0051   1.1149   1.1679   1.2642
     1.5274   1.5414   2.0461   2.0791   2.1151   2.1452   2.2504   2.3556
     2.7506   2.7552   2.8083   2.8559   2.8766   2.9197   2.9276   3.0182
     3.4077   3.7940   4.1827   4.6209   4.8151   5.1931   5.3088   5.3298
     5.4524   5.7228   6.8145   7.0146

     occupation numbers 
     1.0000   1.0000   1.0000   1.0000   1.0000   1.0000   1.0000   1.0000
     1.0000   1.0000   1.0000   1.0000   1.0000   1.0000   1.0000   1.0000
     1.0000   1.0000   1.0000   1.0000   1.0000   1.0000   1.0000   1.0000
     1.0000   1.0000   1.0000   1.0000   1.0000   1.0000   1.0000   1.0000
     1.0000   1.0000   1.0000   1.0000

          k = 0.0833 0.1667 0.3333 (  3487 PWs)   bands (ev):

   -10.5914 -10.1587  -9.9856  -9.9609   1.0123   1.1981   1.2507   1.2841
     1.5819   1.5956   1.9347   1.9913   1.9954   2.0690   2.2842   2.3924
     2.7081   2.7317   2.8027   2.8275   2.8282   2.9096   2.9797   3.0941
     3.2615   3.6187   4.4102   4.5571   4.6833   5.3623   5.3922   5.4322
     5.4801   5.7189   6.6014   6.8409

     occupation numbers 
     1.0000   1.0000   1.0000   1.0000   1.0000   1.0000   1.0000   1.0000
     1.0000   1.0000   1.0000   1.0000   1.0000   1.0000   1.0000   1.0000
     1.0000   1.0000   1.0000   1.0000   1.0000   1.0000   1.0000   1.0000
     1.0000   1.0000   1.0000   1.0000   1.0000   1.0000   1.0000   1.0000
     1.0000   1.0000   1.0000   1.0000

          k = 0.0833 0.1667 0.4167 (  3467 PWs)   bands (ev):

   -10.4882 -10.2641  -9.9786  -9.9658   1.0345   1.1314   1.3847   1.3957
     1.6521   1.6687   1.8295   1.8708   1.9210   1.9764   2.3310   2.4150
     2.6897   2.7081   2.7174   2.7673   2.8498   2.8933   3.0310   3.0968
     3.2778   3.4777   4.5153   4.5754   4.6494   5.1577   5.4005   5.4203
     5.7766   6.0187   6.3488   6.6032

     occupation numbers 
     1.0000   1.0000   1.0000   1.0000   1.0000   1.0000   1.0000   1.0000
     1.0000   1.0000   1.0000   1.0000   1.0000   1.0000   1.0000   1.0000
     1.0000   1.0000   1.0000   1.0000   1.0000   1.0000   1.0000   1.0000
     1.0000   1.0000   1.0000   1.0000   1.0000   1.0000   1.0000   1.0000
     1.0000   1.0000   1.0000   1.0000

          k = 0.0833 0.1667-0.5000 (  3474 PWs)   bands (ev):

   -10.3766 -10.3766  -9.9718  -9.9718   1.0746   1.0746   1.4489   1.4489
     1.7347   1.7347   1.7615   1.7615   1.9053   1.9053   2.3860   2.3860
     2.6918   2.6918   2.7101   2.7101   2.8726   2.8726   3.0673   3.0673
     3.3683   3.3683   4.5169   4.5169   4.8979   4.8979   5.4210   5.4210
     6.0697   6.0697   6.3221   6.3221

     occupation numbers 
     1.0000   1.0000   1.0000   1.0000   1.0000   1.0000   1.0000   1.0000
     1.0000   1.0000   1.0000   1.0000   1.0000   1.0000   1.0000   1.0000
     1.0000   1.0000   1.0000   1.0000   1.0000   1.0000   1.0000   1.0000
     1.0000   1.0000   1.0000   1.0000   1.0000   1.0000   1.0000   1.0000
     1.0000   1.0000   1.0000   1.0000

          k = 0.0833 0.2500 0.2500 (  3496 PWs)   bands (ev):

   -10.6172 -10.0558 -10.0558  -9.9656   1.1119   1.1119   1.2398   1.2453
     1.5494   1.5668   1.9685   1.9685   2.0998   2.1338   2.1338   2.3957
     2.7525   2.7963   2.7964   2.8132   2.8718   2.9173   2.9173   2.9919
     3.2194   3.9774   3.9775   4.6115   5.0623   5.0623   5.4370   5.4930
     5.5401   5.5401   6.6469   7.0020

     occupation numbers 
     1.0000   1.0000   1.0000   1.0000   1.0000   1.0000   1.0000   1.0000
     1.0000   1.0000   1.0000   1.0000   1.0000   1.0000   1.0000   1.0000
     1.0000   1.0000   1.0000   1.0000   1.0000   1.0000   1.0000   1.0000
     1.0000   1.0000   1.0000   1.0000   1.0000   1.0000   1.0000   1.0000
     1.0000   1.0000   1.0000   1.0000

          k = 0.0833 0.2500 0.3333 (  3478 PWs)   bands (ev):

   -10.5358 -10.1386 -10.0408  -9.9770   1.1118   1.2051   1.2522   1.3396
     1.5919   1.6055   1.8657   1.8838   2.0009   2.0329   2.1615   2.4155
     2.7397   2.7485   2.7707   2.8116   2.8307   2.9113   2.9192   2.9250
     3.2484   3.7720   4.1839   4.6094   4.9168   5.1556   5.3322   5.6116
     5.6158   5.8316   6.4277   6.8923

     occupation numbers 
     1.0000   1.0000   1.0000   1.0000   1.0000   1.0000   1.0000   1.0000
     1.0000   1.0000   1.0000   1.0000   1.0000   1.0000   1.0000   1.0000
     1.0000   1.0000   1.0000   1.0000   1.0000   1.0000   1.0000   1.0000
     1.0000   1.0000   1.0000   1.0000   1.0000   1.0000   1.0000   1.0000
     1.0000   1.0000   1.0000   1.0000

          k = 0.0833 0.2500 0.4167 (  3468 PWs)   bands (ev):

   -10.4405 -10.2348 -10.0241  -9.9911   1.1193   1.1683   1.4021   1.4331
     1.6445   1.6692   1.7774   1.8125   1.8728   1.9300   2.2022   2.3553
     2.7012   2.7226   2.7247   2.7860   2.8543   2.8982   2.9266   2.9369
     3.3383   3.5932   4.4056   4.6295   4.7843   4.8898   5.6124   5.6690
     5.6762   6.1440   6.1724   6.6990

     occupation numbers 
     1.0000   1.0000   1.0000   1.0000   1.0000   1.0000   1.0000   1.0000
     1.0000   1.0000   1.0000   1.0000   1.0000   1.0000   1.0000   1.0000
     1.0000   1.0000   1.0000   1.0000   1.0000   1.0000   1.0000   1.0000
     1.0000   1.0000   1.0000   1.0000   1.0000   1.0000   1.0000   1.0000
     1.0000   1.0000   1.0000   1.0000

          k = 0.0833 0.2500-0.5000 (  3478 PWs)   bands (ev):

   -10.3379 -10.3379 -10.0071 -10.0071   1.1380   1.1380   1.4813   1.4813
     1.7044   1.7044   1.7604   1.7604   1.8197   1.8197   2.2644   2.2644
     2.7165   2.7165   2.7367   2.7367   2.8782   2.8782   2.9368   2.9368
     3.4511   3.4511   4.6405   4.6405   4.6857   4.6857   5.6921   5.6921
     5.8960   5.8960   6.4421   6.4421

     occupation numbers 
     1.0000   1.0000   1.0000   1.0000   1.0000   1.0000   1.0000   1.0000
     1.0000   1.0000   1.0000   1.0000   1.0000   1.0000   1.0000   1.0000
     1.0000   1.0000   1.0000   1.0000   1.0000   1.0000   1.0000   1.0000
     1.0000   1.0000   1.0000   1.0000   1.0000   1.0000   1.0000   1.0000
     1.0000   1.0000   1.0000   1.0000

          k = 0.0833 0.3333 0.3333 (  3471 PWs)   bands (ev):

   -10.4632 -10.1129 -10.1129  -9.9986   1.2124   1.2490   1.2490   1.4077
     1.6199   1.6206   1.7897   1.7898   1.9910   2.0135   2.0135   2.2986
     2.7399   2.7506   2.7751   2.7751   2.8303   2.8453   2.9148   2.9148
     3.3293   3.9543   3.9543   4.6641   4.8812   5.1616   5.1616   5.7964
     5.9215   5.9216   6.2052   6.8524

     occupation numbers 
     1.0000   1.0000   1.0000   1.0000   1.0000   1.0000   1.0000   1.0000
     1.0000   1.0000   1.0000   1.0000   1.0000   1.0000   1.0000   1.0000
     1.0000   1.0000   1.0000   1.0000   1.0000   1.0000   1.0000   1.0000
     1.0000   1.0000   1.0000   1.0000   1.0000   1.0000   1.0000   1.0000
     1.0000   1.0000   1.0000   1.0000

          k = 0.0833 0.3333 0.4167 (  3478 PWs)   bands (ev):

   -10.3786 -10.1972 -10.0839 -10.0247   1.2202   1.2406   1.4116   1.4781
     1.6411   1.6753   1.7199   1.7234   1.8745   1.8990   2.0300   2.1278
     2.7355   2.7476   2.7682   2.7830   2.8436   2.8678   2.9067   2.9108
     3.4352   3.7453   4.1587   4.6222   4.7406   4.9943   5.4183   5.9195
     5.9519   5.9736   6.2307   6.7193

     occupation numbers 
     1.0000   1.0000   1.0000   1.0000   1.0000   1.0000   1.0000   1.0000
     1.0000   1.0000   1.0000   1.0000   1.0000   1.0000   1.0000   1.0000
     1.0000   1.0000   1.0000   1.0000   1.0000   1.0000   1.0000   1.0000
     1.0000   1.0000   1.0000   1.0000   1.0000   1.0000   1.0000   1.0000
     1.0000   1.0000   1.0000   1.0000

          k = 0.0833 0.3333-0.5000 (  3468 PWs)   bands (ev):

   -10.2878 -10.2878 -10.0537 -10.0537   1.2299   1.2299   1.5165   1.5165
     1.6725   1.6725   1.7445   1.7445   1.7600   1.7600   2.0569   2.0569
     2.7357   2.7357   2.7790   2.7791   2.8855   2.8855   2.8904   2.8904
     3.5714   3.5714   4.3816   4.3816   4.8505   4.8505   5.6849   5.6849
     5.9764   5.9764   6.5055   6.5055

     occupation numbers 
     1.0000   1.0000   1.0000   1.0000   1.0000   1.0000   1.0000   1.0000
     1.0000   1.0000   1.0000   1.0000   1.0000   1.0000   1.0000   1.0000
     1.0000   1.0000   1.0000   1.0000   1.0000   1.0000   1.0000   1.0000
     1.0000   1.0000   1.0000   1.0000   1.0000   1.0000   1.0000   1.0000
     1.0000   1.0000   1.0000   1.0000

          k = 0.0833 0.4167 0.4167 (  3476 PWs)   bands (ev):

   -10.3067 -10.1541 -10.1541 -10.0648   1.2842   1.3968   1.3968   1.5243
     1.6404   1.6666   1.6666   1.7013   1.8674   1.8754   1.8754   1.8864
     2.7408   2.7622   2.7622   2.7903   2.8556   2.8874   2.9116   2.9116
     3.5633   3.9288   3.9288   4.3699   4.8716   5.2181   5.2181   5.7078
     6.1072   6.2605   6.2605   6.6503

     occupation numbers 
     1.0000   1.0000   1.0000   1.0000   1.0000   1.0000   1.0000   1.0000
     1.0000   1.0000   1.0000   1.0000   1.0000   1.0000   1.0000   1.0000
     1.0000   1.0000   1.0000   1.0000   1.0000   1.0000   1.0000   1.0000
     1.0000   1.0000   1.0000   1.0000   1.0000   1.0000   1.0000   1.0000
     1.0000   1.0000   1.0000   1.0000

          k = 0.0833 0.4167-0.5000 (  3476 PWs)   bands (ev):

   -10.2301 -10.2301 -10.1089 -10.1089   1.3495   1.3495   1.5392   1.5392
     1.6441   1.6441   1.6697   1.6697   1.7648   1.7648   1.8771   1.8771
     2.7476   2.7476   2.7736   2.7736   2.8979   2.8979   2.9046   2.9046
     3.7279   3.7279   4.1380   4.1380   5.0317   5.0317   5.4584   5.4584
     6.2216   6.2216   6.4934   6.4934

     occupation numbers 
     1.0000   1.0000   1.0000   1.0000   1.0000   1.0000   1.0000   1.0000
     1.0000   1.0000   1.0000   1.0000   1.0000   1.0000   1.0000   1.0000
     1.0000   1.0000   1.0000   1.0000   1.0000   1.0000   1.0000   1.0000
     1.0000   1.0000   1.0000   1.0000   1.0000   1.0000   1.0000   1.0000
     1.0000   1.0000   1.0000   1.0000

          k = 0.0833-0.5000-0.5000 (  3504 PWs)   bands (ev):

   -10.1690 -10.1690 -10.1690 -10.1690   1.4809   1.4809   1.4809   1.4809
     1.6273   1.6273   1.6273   1.6273   1.7897   1.7897   1.7897   1.7897
     2.7584   2.7584   2.7584   2.7584   2.9098   2.9098   2.9098   2.9098
     3.9182   3.9182   3.9182   3.9182   5.2361   5.2361   5.2361   5.2361
     6.3983   6.3983   6.3983   6.3983

     occupation numbers 
     1.0000   1.0000   1.0000   1.0000   1.0000   1.0000   1.0000   1.0000
     1.0000   1.0000   1.0000   1.0000   1.0000   1.0000   1.0000   1.0000
     1.0000   1.0000   1.0000   1.0000   1.0000   1.0000   1.0000   1.0000
     1.0000   1.0000   1.0000   1.0000   1.0000   1.0000   1.0000   1.0000
     1.0000   1.0000   1.0000   1.0000

          k = 0.1667 0.1667 0.1667 (  3488 PWs)   bands (ev):

   -10.7063  -9.9963  -9.9963  -9.9963   1.0684   1.0684   1.0684   1.2925
     1.5147   1.5147   2.1362   2.1362   2.1362   2.2115   2.2115   2.2115
     2.7839   2.7839   2.8664   2.8664   2.8664   2.9139   2.9139   2.9139
     3.7817   3.7817   3.7817   4.9058   4.9058   4.9058   5.3418   5.3418
     5.3418   5.7657   7.0140   7.0140

     occupation numbers 
     1.0000   1.0000   1.0000   1.0000   1.0000   1.0000   1.0000   1.0000
     1.0000   1.0000   1.0000   1.0000   1.0000   1.0000   1.0000   1.0000
     1.0000   1.0000   1.0000   1.0000   1.0000   1.0000   1.0000   1.0000
     1.0000   1.0000   1.0000   1.0000   1.0000   1.0000   1.0000   1.0000
     1.0000   1.0000   1.0000   1.0000

          k = 0.1667 0.1667 0.2500 (  3488 PWs)   bands (ev):

   -10.6423 -10.0622  -9.9945  -9.9945   1.0648   1.1655   1.1655   1.2512
     1.5407   1.5512   2.0457   2.0731   2.0743   2.0743   2.2300   2.2300
     2.7652   2.7964   2.8017   2.8812   2.8812   2.9146   2.9425   2.9425
     3.5565   3.5565   3.9785   4.8560   4.8560   5.2085   5.4355   5.4355
     5.4757   5.5128   6.8722   6.9552

     occupation numbers 
     1.0000   1.0000   1.0000   1.0000   1.0000   1.0000   1.0000   1.0000
     1.0000   1.0000   1.0000   1.0000   1.0000   1.0000   1.0000   1.0000
     1.0000   1.0000   1.0000   1.0000   1.0000   1.0000   1.0000   1.0000
     1.0000   1.0000   1.0000   1.0000   1.0000   1.0000   1.0000   1.0000
     1.0000   1.0000   1.0000   1.0000

          k = 0.1667 0.1667 0.3333 (  3483 PWs)   bands (ev):

   -10.5584 -10.1480  -9.9928  -9.9928   1.0665   1.1996   1.2870   1.2870
     1.5846   1.6031   1.9400   1.9445   1.9884   1.9884   2.2689   2.2689
     2.7441   2.7457   2.8240   2.8284   2.8284   2.9075   3.0079   3.0079
     3.3711   3.3711   4.1951   4.8021   4.8021   5.1900   5.5030   5.5030
     5.5545   5.7277   6.6851   6.7934

     occupation numbers 
     1.0000   1.0000   1.0000   1.0000   1.0000   1.0000   1.0000   1.0000
     1.0000   1.0000   1.0000   1.0000   1.0000   1.0000   1.0000   1.0000
     1.0000   1.0000   1.0000   1.0000   1.0000   1.0000   1.0000   1.0000
     1.0000   1.0000   1.0000   1.0000   1.0000   1.0000   1.0000   1.0000
     1.0000   1.0000   1.0000   1.0000

          k = 0.1667 0.1667 0.4167 (  3470 PWs)   bands (ev):

   -10.4602 -10.2477  -9.9915  -9.9915   1.0790   1.1484   1.4084   1.4084
     1.6463   1.6700   1.8234   1.8439   1.8975   1.8975   2.3141   2.3141
     2.7191   2.7248   2.7518   2.7518   2.8485   2.8929   3.0536   3.0537
     3.2683   3.2683   4.4244   4.7596   4.7596   4.9197   5.5414   5.5414
     5.9099   5.9691   6.4633   6.5503

     occupation numbers 
     1.0000   1.0000   1.0000   1.0000   1.0000   1.0000   1.0000   1.0000
     1.0000   1.0000   1.0000   1.0000   1.0000   1.0000   1.0000   1.0000
     1.0000   1.0000   1.0000   1.0000   1.0000   1.0000   1.0000   1.0000
     1.0000   1.0000   1.0000   1.0000   1.0000   1.0000   1.0000   1.0000
     1.0000   1.0000   1.0000   1.0000

          k = 0.1667 0.1667-0.5000 (  3496 PWs)   bands (ev):

   -10.3542 -10.3542  -9.9911  -9.9911   1.1064   1.1064   1.4691   1.4691
     1.7255   1.7255   1.7509   1.7509   1.8488   1.8488   2.3379   2.3379
     2.7099   2.7099   2.7139   2.7139   2.8722   2.8722   3.0685   3.0685
     3.2403   3.2403   4.6652   4.6652   4.7433   4.7433   5.5536   5.5536
     6.2196   6.2196   6.2488   6.2488

     occupation numbers 
     1.0000   1.0000   1.0000   1.0000   1.0000   1.0000   1.0000   1.0000
     1.0000   1.0000   1.0000   1.0000   1.0000   1.0000   1.0000   1.0000
     1.0000   1.0000   1.0000   1.0000   1.0000   1.0000   1.0000   1.0000
     1.0000   1.0000   1.0000   1.0000   1.0000   1.0000   1.0000   1.0000
     1.0000   1.0000   1.0000   1.0000

          k = 0.1667 0.2500 0.2500 (  3491 PWs)   bands (ev):

   -10.5832 -10.0539 -10.0539  -9.9986   1.1612   1.1612   1.2293   1.2446
     1.5634   1.5740   1.9773   1.9773   2.0451   2.0860   2.0860   2.2190
     2.7683   2.8044   2.8415   2.8415   2.8857   2.9119   2.9119   2.9718
     3.3170   3.7414   3.7414   4.8765   5.1682   5.1682   5.1912   5.5769
     5.6052   5.6052   6.7640   6.9295

     occupation numbers 
     1.0000   1.0000   1.0000   1.0000   1.0000   1.0000   1.0000   1.0000
     1.0000   1.0000   1.0000   1.0000   1.0000   1.0000   1.0000   1.0000
     1.0000   1.0000   1.0000   1.0000   1.0000   1.0000   1.0000   1.0000
     1.0000   1.0000   1.0000   1.0000   1.0000   1.0000   1.0000   1.0000
     1.0000   1.0000   1.0000   1.0000

          k = 0.1667 0.2500 0.3333 (  3475 PWs)   bands (ev):

   -10.5060 -10.1315 -10.0437 -10.0046   1.1565   1.2029   1.2874   1.3433
     1.5969   1.6132   1.8741   1.8899   1.9537   1.9761   2.1156   2.2237
     2.7567   2.7870   2.8251   2.8382   2.8390   2.9072   2.9362   2.9839
     3.1962   3.5266   3.9457   4.8914   4.9095   5.0984   5.5001   5.6866
     5.6882   5.8319   6.5794   6.8281

     occupation numbers 
     1.0000   1.0000   1.0000   1.0000   1.0000   1.0000   1.0000   1.0000
     1.0000   1.0000   1.0000   1.0000   1.0000   1.0000   1.0000   1.0000
     1.0000   1.0000   1.0000   1.0000   1.0000   1.0000   1.0000   1.0000
     1.0000   1.0000   1.0000   1.0000   1.0000   1.0000   1.0000   1.0000
     1.0000   1.0000   1.0000   1.0000

          k = 0.1667 0.2500 0.4167 (  3470 PWs)   bands (ev):

   -10.4158 -10.2219 -10.0328 -10.0125   1.1551   1.1784   1.4229   1.4439
     1.6430   1.6706   1.7803   1.8066   1.8407   1.8733   2.1532   2.2209
     2.7444   2.7533   2.7648   2.7973   2.8509   2.8954   2.9651   2.9805
     3.2093   3.3679   4.1640   4.6438   4.9159   5.0233   5.7441   5.7492
     5.8137   6.1020   6.3539   6.6378

     occupation numbers 
     1.0000   1.0000   1.0000   1.0000   1.0000   1.0000   1.0000   1.0000
     1.0000   1.0000   1.0000   1.0000   1.0000   1.0000   1.0000   1.0000
     1.0000   1.0000   1.0000   1.0000   1.0000   1.0000   1.0000   1.0000
     1.0000   1.0000   1.0000   1.0000   1.0000   1.0000   1.0000   1.0000
     1.0000   1.0000   1.0000   1.0000

[...]
     6.2572   6.2572   6.4520   6.4520

     occupation numbers 
     1.0000   1.0000   1.0000   1.0000   1.0000   1.0000   1.0000   1.0000
     1.0000   1.0000   1.0000   1.0000   1.0000   1.0000   1.0000   1.0000
     1.0000   1.0000   1.0000   1.0000   1.0000   1.0000   1.0000   1.0000
     1.0000   1.0000   1.0000   1.0000   1.0000   1.0000   1.0000   1.0000
     1.0000   1.0000   1.0000   1.0000

          k = 0.2500-0.5000-0.5000 (  3476 PWs)   bands (ev):

   -10.1622 -10.1622 -10.1622 -10.1622   1.4466   1.4466   1.4466   1.4466
     1.6646   1.6646   1.6646   1.6646   1.7440   1.7440   1.7440   1.7440
     2.8193   2.8193   2.8193   2.8193   2.9073   2.9073   2.9073   2.9073
     3.4477   3.4477   3.4477   3.4477   5.8573   5.8573   5.8573   5.8573
     6.3942   6.3942   6.3942   6.3942

     occupation numbers 
     1.0000   1.0000   1.0000   1.0000   1.0000   1.0000   1.0000   1.0000
     1.0000   1.0000   1.0000   1.0000   1.0000   1.0000   1.0000   1.0000
     1.0000   1.0000   1.0000   1.0000   1.0000   1.0000   1.0000   1.0000
     1.0000   1.0000   1.0000   1.0000   1.0000   1.0000   1.0000   1.0000
     1.0000   1.0000   1.0000   1.0000

          k = 0.3333 0.3333 0.3333 (  3476 PWs)   bands (ev):

   -10.3453 -10.1041 -10.1041 -10.1041   1.2265   1.4011   1.4011   1.4011
     1.6494   1.6494   1.8172   1.8172   1.8172   1.8247   1.8247   1.8247
     2.8232   2.8232   2.8892   2.8892   2.8892   2.9024   2.9024   2.9024
     3.2680   3.2680   3.2680   4.0792   5.7182   5.7182   5.7182   6.0549
     6.0549   6.0549   6.6060   6.6060

     occupation numbers 
     1.0000   1.0000   1.0000   1.0000   1.0000   1.0000   1.0000   1.0000
     1.0000   1.0000   1.0000   1.0000   1.0000   1.0000   1.0000   1.0000
     1.0000   1.0000   1.0000   1.0000   1.0000   1.0000   1.0000   1.0000
     1.0000   1.0000   1.0000   1.0000   1.0000   1.0000   1.0000   1.0000
     1.0000   1.0000   1.0000   1.0000

          k = 0.3333 0.3333 0.4167 (  3466 PWs)   bands (ev):

   -10.2855 -10.1606 -10.1017 -10.1017   1.2580   1.3619   1.4801   1.4801
     1.6625   1.6764   1.7268   1.7344   1.7345   1.7653   1.8313   1.8313
     2.8204   2.8547   2.8550   2.8682   2.8683   2.8911   2.9289   2.9289
     3.1571   3.1571   3.4304   3.8346   5.7632   5.7632   6.0659   6.1360
     6.1360   6.1894   6.4752   6.5368

     occupation numbers 
     1.0000   1.0000   1.0000   1.0000   1.0000   1.0000   1.0000   1.0000
     1.0000   1.0000   1.0000   1.0000   1.0000   1.0000   1.0000   1.0000
     1.0000   1.0000   1.0000   1.0000   1.0000   1.0000   1.0000   1.0000
     1.0000   1.0000   1.0000   1.0000   1.0000   1.0000   1.0000   1.0000
     1.0000   1.0000   1.0000   1.0000

          k = 0.3333 0.3333-0.5000 (  3452 PWs)   bands (ev):

   -10.2224 -10.2224 -10.1009 -10.1009   1.3070   1.3070   1.5299   1.5299
     1.6826   1.6826   1.6831   1.6831   1.7152   1.7152   1.8350   1.8350
     2.8286   2.8286   2.8550   2.8550   2.8791   2.8791   2.9388   2.9388
     3.1243   3.1243   3.6191   3.6191   5.7739   5.7739   6.1684   6.1684
     6.3330   6.3330   6.3489   6.3489

     occupation numbers 
     1.0000   1.0000   1.0000   1.0000   1.0000   1.0000   1.0000   1.0000
     1.0000   1.0000   1.0000   1.0000   1.0000   1.0000   1.0000   1.0000
     1.0000   1.0000   1.0000   1.0000   1.0000   1.0000   1.0000   1.0000
     1.0000   1.0000   1.0000   1.0000   1.0000   1.0000   1.0000   1.0000
     1.0000   1.0000   1.0000   1.0000

          k = 0.3333 0.4167 0.4167 (  3473 PWs)   bands (ev):

   -10.2391 -10.1439 -10.1439 -10.1134   1.3013   1.4324   1.4324   1.5048
     1.6780   1.6808   1.6945   1.6945   1.7160   1.7590   1.7590   1.7675
     2.8347   2.8641   2.8641   2.8691   2.8719   2.9002   2.9002   2.9171
     3.1235   3.2665   3.2665   3.6082   5.8999   6.0505   6.0505   6.2328
     6.2678   6.2678   6.3874   6.5180

     occupation numbers 
     1.0000   1.0000   1.0000   1.0000   1.0000   1.0000   1.0000   1.0000
     1.0000   1.0000   1.0000   1.0000   1.0000   1.0000   1.0000   1.0000
     1.0000   1.0000   1.0000   1.0000   1.0000   1.0000   1.0000   1.0000
     1.0000   1.0000   1.0000   1.0000   1.0000   1.0000   1.0000   1.0000
     1.0000   1.0000   1.0000   1.0000

          k = 0.3333 0.4167-0.5000 (  3470 PWs)   bands (ev):

   -10.1907 -10.1907 -10.1277 -10.1277   1.3634   1.3634   1.4941   1.4941
     1.6789   1.6789   1.6817   1.6817   1.7108   1.7108   1.7595   1.7595
     2.8446   2.8446   2.8627   2.8627   2.8878   2.8878   2.9124   2.9124
     3.1655   3.1655   3.4190   3.4190   5.9879   5.9879   6.2478   6.2478
     6.2891   6.2891   6.4181   6.4181

     occupation numbers 
     1.0000   1.0000   1.0000   1.0000   1.0000   1.0000   1.0000   1.0000
     1.0000   1.0000   1.0000   1.0000   1.0000   1.0000   1.0000   1.0000
     1.0000   1.0000   1.0000   1.0000   1.0000   1.0000   1.0000   1.0000
     1.0000   1.0000   1.0000   1.0000   1.0000   1.0000   1.0000   1.0000
     1.0000   1.0000   1.0000   1.0000

          k = 0.3333-0.5000-0.5000 (  3476 PWs)   bands (ev):

   -10.1583 -10.1583 -10.1583 -10.1583   1.4313   1.4313   1.4313   1.4313
     1.6815   1.6815   1.6815   1.6815   1.7195   1.7195   1.7195   1.7195
     2.8523   2.8523   2.8523   2.8524   2.9008   2.9008   2.9008   2.9008
     3.2679   3.2679   3.2679   3.2679   6.1351   6.1351   6.1351   6.1351
     6.3918   6.3918   6.3918   6.3918

     occupation numbers 
     1.0000   1.0000   1.0000   1.0000   1.0000   1.0000   1.0000   1.0000
     1.0000   1.0000   1.0000   1.0000   1.0000   1.0000   1.0000   1.0000
     1.0000   1.0000   1.0000   1.0000   1.0000   1.0000   1.0000   1.0000
     1.0000   1.0000   1.0000   1.0000   1.0000   1.0000   1.0000   1.0000
     1.0000   1.0000   1.0000   1.0000

          k = 0.4167 0.4167 0.4167 (  3458 PWs)   bands (ev):

   -10.2063 -10.1411 -10.1411 -10.1411   1.3349   1.4509   1.4509   1.4509
     1.6855   1.6855   1.6940   1.6940   1.6940   1.7294   1.7295   1.7295
     2.8646   2.8646   2.8851   2.8851   2.8851   2.8913   2.8913   2.8913
     3.1579   3.1579   3.1579   3.4099   6.1871   6.1871   6.1871   6.3005
     6.3005   6.3005   6.4487   6.4487

     occupation numbers 
     1.0000   1.0000   1.0000   1.0000   1.0000   1.0000   1.0000   1.0000
     1.0000   1.0000   1.0000   1.0000   1.0000   1.0000   1.0000   1.0000
     1.0000   1.0000   1.0000   1.0000   1.0000   1.0000   1.0000   1.0000
     1.0000   1.0000   1.0000   1.0000   1.0000   1.0000   1.0000   1.0000
     1.0000   1.0000   1.0000   1.0000

          k = 0.4167 0.4167-0.5000 (  3474 PWs)   bands (ev):

   -10.1728 -10.1728 -10.1401 -10.1401   1.3872   1.3872   1.4595   1.4595
     1.6872   1.6872   1.6888   1.6888   1.7015   1.7015   1.7234   1.7234
     2.8697   2.8697   2.8788   2.8788   2.8824   2.8824   2.8986   2.8986
     3.1239   3.1239   3.2595   3.2595   6.2126   6.2126   6.3343   6.3343
     6.3743   6.3743   6.3789   6.3789

     occupation numbers 
     1.0000   1.0000   1.0000   1.0000   1.0000   1.0000   1.0000   1.0000
     1.0000   1.0000   1.0000   1.0000   1.0000   1.0000   1.0000   1.0000
     1.0000   1.0000   1.0000   1.0000   1.0000   1.0000   1.0000   1.0000
     1.0000   1.0000   1.0000   1.0000   1.0000   1.0000   1.0000   1.0000
     1.0000   1.0000   1.0000   1.0000

          k = 0.4167-0.5000-0.5000 (  3488 PWs)   bands (ev):

   -10.1554 -10.1554 -10.1554 -10.1554   1.4212   1.4212   1.4212   1.4212
     1.6925   1.6925   1.6925   1.6925   1.7024   1.7024   1.7024   1.7024
     2.8754   2.8754   2.8754   2.8755   2.8902   2.8902   2.8902   2.8902
     3.1608   3.1609   3.1609   3.1609   6.3229   6.3229   6.3229   6.3229
     6.3900   6.3900   6.3900   6.3900

     occupation numbers 
     1.0000   1.0000   1.0000   1.0000   1.0000   1.0000   1.0000   1.0000
     1.0000   1.0000   1.0000   1.0000   1.0000   1.0000   1.0000   1.0000
     1.0000   1.0000   1.0000   1.0000   1.0000   1.0000   1.0000   1.0000
     1.0000   1.0000   1.0000   1.0000   1.0000   1.0000   1.0000   1.0000
     1.0000   1.0000   1.0000   1.0000

          k =-0.5000-0.5000-0.5000 (  3448 PWs)   bands (ev):

   -10.1543 -10.1543 -10.1543 -10.1543   1.4178   1.4178   1.4178   1.4178
     1.6965   1.6965   1.6965   1.6965   1.6965   1.6965   1.6965   1.6965
     2.8840   2.8840   2.8840   2.8841   2.8841   2.8841   2.8841   2.8841
     3.1272   3.1272   3.1272   3.1272   6.3894   6.3894   6.3894   6.3895
     6.3895   6.3895   6.3895   6.3895

     occupation numbers 
     1.0000   1.0000   1.0000   1.0000   1.0000   1.0000   1.0000   1.0000
     1.0000   1.0000   1.0000   1.0000   1.0000   1.0000   1.0000   1.0000
     1.0000   1.0000   1.0000   1.0000   1.0000   1.0000   1.0000   1.0000
     1.0000   1.0000   1.0000   1.0000   1.0000   1.0000   1.0000   1.0000
     1.0000   1.0000   1.0000   1.0000

     highest occupied level (ev):     7.2118

!    total energy              =   -1128.74234239 Ry

     total all-electron energy =    -14957.717994 Ry
     estimated scf accuracy    <          4.9E-09 Ry

     The total energy is the sum of the following terms:
     one-electron contribution =    -298.21713255 Ry
     hartree contribution      =     232.16320329 Ry
     xc contribution           =    -216.60292868 Ry
     ewald contribution        =    -436.83181830 Ry
     DFT-D3 Dispersion         =      -0.08628887 Ry
     one-center paw contrib.   =    -409.16737729 Ry
      -> PAW hartree energy AE =     252.25215711 Ry
      -> PAW hartree energy PS =    -250.94262516 Ry
      -> PAW xc energy AE      =    -281.29314028 Ry
      -> PAW xc energy PS      =      93.80086612 Ry
      -> total E_H with PAW    =     233.47273524 Ry
      -> total E_XC with PAW   =    -404.09520284 Ry

     convergence has been achieved in  11 iterations

     Forces acting on atoms (cartesian axes, Ry/au):

     atom    1 type  1   force =     0.00000000    0.00000000    0.00000000
     atom    2 type  1   force =     0.00000000    0.00000000    0.00000000
     atom    3 type  1   force =     0.00000000    0.00000000    0.00000000
     atom    4 type  1   force =     0.00000000    0.00000000    0.00000000
     atom    5 type  2   force =    -0.00000039   -0.00000039   -0.00000039
     atom    6 type  2   force =    -0.00000039    0.00000039    0.00000039
     atom    7 type  2   force =     0.00000039   -0.00000039    0.00000039
     atom    8 type  2   force =     0.00000039    0.00000039   -0.00000039
     The non-local contrib.  to forces
     atom    1 type  1   force =     0.00000000    0.00000000    0.00000000
     atom    2 type  1   force =     0.00000000    0.00000000    0.00000000
     atom    3 type  1   force =     0.00000000    0.00000000    0.00000000
     atom    4 type  1   force =     0.00000000    0.00000000    0.00000000
     atom    5 type  2   force =    -0.00000026   -0.00000026   -0.00000026
     atom    6 type  2   force =    -0.00000026    0.00000026    0.00000026
     atom    7 type  2   force =     0.00000026   -0.00000026    0.00000026
     atom    8 type  2   force =     0.00000026    0.00000026   -0.00000026
     The ionic contribution  to forces
     atom    1 type  1   force =    -0.00000000   -0.00000000    0.00000000
     atom    2 type  1   force =    -0.00000000    0.00000000   -0.00000000
     atom    3 type  1   force =     0.00000000   -0.00000000   -0.00000000
     atom    4 type  1   force =     0.00000000    0.00000000    0.00000000
     atom    5 type  2   force =    -0.00000000   -0.00000000   -0.00000000
     atom    6 type  2   force =    -0.00000000   -0.00000000   -0.00000000
     atom    7 type  2   force =    -0.00000000   -0.00000000   -0.00000000
     atom    8 type  2   force =    -0.00000000   -0.00000000    0.00000000
     The local contribution  to forces
     atom    1 type  1   force =     0.00000000    0.00000000    0.00000000
     atom    2 type  1   force =     0.00000000    0.00000000    0.00000000
     atom    3 type  1   force =     0.00000000   -0.00000000    0.00000000
     atom    4 type  1   force =     0.00000000    0.00000000   -0.00000000
     atom    5 type  2   force =     0.00000178    0.00000178    0.00000178
     atom    6 type  2   force =     0.00000178   -0.00000178   -0.00000178
     atom    7 type  2   force =    -0.00000178    0.00000178   -0.00000178
     atom    8 type  2   force =    -0.00000178   -0.00000178    0.00000178
     The core correction contribution to forces
     atom    1 type  1   force =     0.00000000    0.00000000   -0.00000000
     atom    2 type  1   force =    -0.00000000    0.00000000   -0.00000000
     atom    3 type  1   force =     0.00000000    0.00000000    0.00000000
     atom    4 type  1   force =     0.00000000    0.00000000    0.00000000
     atom    5 type  2   force =     0.00000001    0.00000001    0.00000001
     atom    6 type  2   force =     0.00000001   -0.00000001   -0.00000001
     atom    7 type  2   force =    -0.00000001    0.00000001   -0.00000001
     atom    8 type  2   force =    -0.00000001   -0.00000001    0.00000001
     The Hubbard contrib.    to forces
     atom    1 type  1   force =     0.00000000    0.00000000    0.00000000
     atom    2 type  1   force =     0.00000000    0.00000000    0.00000000
     atom    3 type  1   force =     0.00000000    0.00000000    0.00000000
     atom    4 type  1   force =     0.00000000    0.00000000    0.00000000
     atom    5 type  2   force =     0.00000000    0.00000000    0.00000000
     atom    6 type  2   force =     0.00000000    0.00000000    0.00000000
     atom    7 type  2   force =     0.00000000    0.00000000    0.00000000
     atom    8 type  2   force =     0.00000000    0.00000000    0.00000000
     The SCF correction term to forces
     atom    1 type  1   force =     0.00000000    0.00000000    0.00000000
     atom    2 type  1   force =    -0.00000000   -0.00000000   -0.00000000
     atom    3 type  1   force =     0.00000000    0.00000000    0.00000000
     atom    4 type  1   force =     0.00000000    0.00000000    0.00000000
     atom    5 type  2   force =    -0.00000192   -0.00000192   -0.00000192
     atom    6 type  2   force =    -0.00000192    0.00000192    0.00000192
     atom    7 type  2   force =     0.00000192   -0.00000192    0.00000192
     atom    8 type  2   force =     0.00000192    0.00000192   -0.00000192

     DFT-D3 dispersion contribution to forces:
     atom    1 type  1   force =     0.00000000    0.00000000    0.00000000
     atom    2 type  1   force =    -0.00000000   -0.00000000   -0.00000000
     atom    3 type  1   force =     0.00000000    0.00000000   -0.00000000
     atom    4 type  1   force =    -0.00000000   -0.00000000    0.00000000
     atom    5 type  2   force =    -0.00000000   -0.00000000   -0.00000000
     atom    6 type  2   force =    -0.00000000    0.00000000    0.00000000
     atom    7 type  2   force =     0.00000000   -0.00000000    0.00000000
     atom    8 type  2   force =     0.00000000    0.00000000   -0.00000000

     Total force =     0.000001     Total SCF correction =     0.000007

     DFT-D3 dispersion Force =     0.000000
     SCF correction compared to forces is large: reduce conv_thr to get better values

     BFGS Geometry Optimization
     Energy error            =      0.0E+00
     Gradient error          =      3.9E-07

     bfgs converged in   1 scf cycles and   0 bfgs steps
     (criteria: energy <  1.0E-04 Ry, force <  1.0E-03 Ry/Bohr)

     End of BFGS Geometry Optimization

     Final energy   =   -1128.7423423868 Ry
Begin final coordinates

ATOMIC_POSITIONS (crystal)
Zn            0.0000000000        0.0000000000        0.0000000000
Zn            0.0000000000        0.5000000000        0.5000000000
Zn            0.5000000000        0.0000000000        0.5000000000
Zn            0.5000000000        0.5000000000        0.0000000000
O             0.7500000000        0.7500000000        0.7500000000
O             0.7500000000        0.2500000000        0.2500000000
O             0.2500000000        0.7500000000        0.2500000000
O             0.2500000000        0.2500000000        0.7500000000
End final coordinates



     Writing output data file ./tmp/ZnO.save/

     init_run     :      1.32s CPU      1.47s WALL (       1 calls)
     electrons    :    392.04s CPU    399.67s WALL (       1 calls)
     forces       :     10.71s CPU     10.75s WALL (       1 calls)

     Called by init_run:
     wfcinit      :      0.35s CPU      0.42s WALL (       1 calls)
     potinit      :      0.39s CPU      0.40s WALL (       1 calls)
     hinit0       :      0.35s CPU      0.37s WALL (       1 calls)

     Called by electrons:
     c_bands      :    360.85s CPU    367.30s WALL (      11 calls)
     sum_band     :     22.86s CPU     23.75s WALL (      11 calls)
     v_of_rho     :      0.35s CPU      0.39s WALL (      12 calls)
     v_h          :      0.02s CPU      0.02s WALL (      12 calls)
     v_xc         :      0.37s CPU      0.41s WALL (      13 calls)
     newd         :      1.23s CPU      1.48s WALL (      12 calls)
     PAW_pot      :      5.22s CPU      5.22s WALL (      12 calls)
     mix_rho      :      0.07s CPU      0.08s WALL (      11 calls)

     Called by c_bands:
     init_us_2    :      1.85s CPU      1.88s WALL (    1932 calls)
     cegterg      :    353.62s CPU    359.98s WALL (     924 calls)

     Called by sum_band:
     sum_band:wei :      0.00s CPU      0.00s WALL (      11 calls)
     sum_band:loo :     21.63s CPU     22.24s WALL (      11 calls)
     sum_band:buf :      0.24s CPU      0.25s WALL (     924 calls)
     sum_band:ini :      0.88s CPU      0.88s WALL (     924 calls)
     sum_band:cal :     11.63s CPU     11.93s WALL (     924 calls)
     sum_band:bec :      0.10s CPU      0.10s WALL (     924 calls)
     addusdens    :      1.09s CPU      1.38s WALL (      11 calls)
     addusd:skk   :      0.01s CPU      0.01s WALL (      22 calls)
     addusd:dgemm :      0.56s CPU      0.84s WALL (      22 calls)
     addusd:qvan2 :      0.38s CPU      0.38s WALL (      22 calls)

     Called by *egterg:
     cdiaghg      :     20.73s CPU     20.93s WALL (    6623 calls)
     cegterg:over :     54.06s CPU     54.42s WALL (    5783 calls)
     cegterg:upda :     22.44s CPU     22.63s WALL (    5783 calls)
     cegterg:last :     57.39s CPU     58.01s WALL (    3582 calls)
     cdiaghg:chol :      1.62s CPU      1.64s WALL (    6623 calls)
     cdiaghg:inve :      0.21s CPU      0.21s WALL (    6623 calls)
     cdiaghg:para :      5.25s CPU      5.30s WALL (   13246 calls)
     h_psi        :    150.13s CPU    154.91s WALL (    6707 calls)
     s_psi        :     34.53s CPU     34.71s WALL (    6707 calls)
     g_psi        :      1.71s CPU      1.72s WALL (    5783 calls)

     Called by h_psi:
     h_psi:calbec :     46.67s CPU     48.23s WALL (    6707 calls)
     vloc_psi     :     67.11s CPU     70.13s WALL (    6707 calls)
     add_vuspsi   :     35.84s CPU     36.07s WALL (    6707 calls)

     General routines
     calbec       :     63.73s CPU     65.63s WALL (    7967 calls)
     fft          :      0.48s CPU      0.49s WALL (     165 calls)
     ffts         :      0.01s CPU      0.01s WALL (      23 calls)
     fftw         :     67.33s CPU     70.29s WALL (  303458 calls)
     interpolate  :      0.02s CPU      0.02s WALL (      12 calls)

     Parallel routines
     fft_scatt_xy :      6.50s CPU      6.78s WALL (  303646 calls)
     fft_scatt_yz :     26.75s CPU     27.89s WALL (  303646 calls)

     PAW routines
     PAW_pot      :      5.22s CPU      5.22s WALL (      12 calls)
     PAW_symme    :      0.01s CPU      0.01s WALL (      22 calls)

     PWSCF        :   6m44.41s CPU   6m52.74s WALL


   This run was terminated on:  17:47:37   8Sep2024            

=------------------------------------------------------------------------------=
   JOB DONE.
=------------------------------------------------------------------------------=
