
     Program BANDS v.6.7MaX starts on  8Sep2024 at 19:21:20 

     This program is part of the open-source Quantum ESPRESSO suite
     for quantum simulation of materials; please cite
         "P. Giannozzi et al., J. Phys.:Condens. Matter 21 395502 (2009);
         "P. Giannozzi et al., J. Phys.:Condens. Matter 29 465901 (2017);
          URL http://www.quantum-espresso.org", 
     in publications or presentations arising from this work. More details at
     http://www.quantum-espresso.org/quote

     Parallel version (MPI), running on     4 processors

     MPI processes distributed on     1 nodes
     R & G space division:  proc/nbgrp/npool/nimage =       4

     Reading xml data from directory:

     /home/alessandro_rotondi/q-e/projects/ZnO/tmp/ZnO.save/
     file Zn.pbe-dnl-kjpaw_psl.1.0.0.UPF: wavefunction(s)  4S 3D renormalized
     file O.pbe-n-kjpaw_psl.1.0.0.UPF: wavefunction(s)  2S 2P renormalized

     IMPORTANT: XC functional enforced from input :
     Exchange-correlation= PBE
                           (   1   4   3   4   0   0   0)
     Any further DFT definition will be discarded
     Please, verify this is what you really want


     Parallelization info
     --------------------
     sticks:   dense  smooth     PW     G-vecs:    dense   smooth      PW
     Min         475     276     83                15667     6955    1137
     Max         476     278     84                15668     6958    1140
     Sum        1901    1109    333                62669    27825    4553


     Check: negative core charge=   -0.000002
     Reading collected, re-writing distributed wavefunctions
     high-symmetry point:  0.0000 0.0000 0.0000   x coordinate   0.0000
     high-symmetry point:  0.0000 0.0000 0.4167   x coordinate   0.4167
     high-symmetry point:  0.0000 0.0000-0.5000   x coordinate   0.4167
     high-symmetry point:  0.0000 0.0833 0.0833   x coordinate   0.4167
     high-symmetry point:  0.0000 0.0833 0.4167   x coordinate   0.7500
     high-symmetry point:  0.0000 0.0833-0.5000   x coordinate   0.7500
     high-symmetry point:  0.0000 0.1667 0.1667   x coordinate   0.7500
     high-symmetry point:  0.0000 0.1667 0.4167   x coordinate   1.0000
     high-symmetry point:  0.0000 0.1667-0.5000   x coordinate   1.0000
     high-symmetry point:  0.0000 0.2500 0.2500   x coordinate   1.0000
     high-symmetry point:  0.0000 0.2500 0.4167   x coordinate   1.1667
     high-symmetry point:  0.0000 0.2500-0.5000   x coordinate   1.1667
     high-symmetry point:  0.0000 0.3333 0.3333   x coordinate   1.1667
     high-symmetry point:  0.0000 0.3333 0.4167   x coordinate   1.2500
     high-symmetry point:  0.0000 0.3333-0.5000   x coordinate   1.2500
     high-symmetry point:  0.0000 0.4167 0.4167   x coordinate   1.2500
     high-symmetry point:  0.0000 0.4167-0.5000   x coordinate   1.2500
     high-symmetry point:  0.0000-0.5000-0.5000   x coordinate   1.2500
     high-symmetry point:  0.0833 0.0833 0.0833   x coordinate   1.2500
     high-symmetry point:  0.0833 0.0833 0.4167   x coordinate   1.5833
     high-symmetry point:  0.0833 0.0833-0.5000   x coordinate   1.5833
     high-symmetry point:  0.0833 0.1667 0.1667   x coordinate   1.5833
     high-symmetry point:  0.0833 0.1667 0.4167   x coordinate   1.8333
     high-symmetry point:  0.0833 0.1667-0.5000   x coordinate   1.8333
     high-symmetry point:  0.0833 0.2500 0.2500   x coordinate   1.8333
     high-symmetry point:  0.0833 0.2500 0.4167   x coordinate   2.0000
     high-symmetry point:  0.0833 0.2500-0.5000   x coordinate   2.0000
     high-symmetry point:  0.0833 0.3333 0.3333   x coordinate   2.0000
     high-symmetry point:  0.0833 0.3333 0.4167   x coordinate   2.0833
     high-symmetry point:  0.0833 0.3333-0.5000   x coordinate   2.0833
     high-symmetry point:  0.0833 0.4167 0.4167   x coordinate   2.0833
     high-symmetry point:  0.0833 0.4167-0.5000   x coordinate   2.0833
     high-symmetry point:  0.0833-0.5000-0.5000   x coordinate   2.0833
     high-symmetry point:  0.1667 0.1667 0.1667   x coordinate   2.0833
     high-symmetry point:  0.1667 0.1667 0.4167   x coordinate   2.3333
     high-symmetry point:  0.1667 0.1667-0.5000   x coordinate   2.3333
     high-symmetry point:  0.1667 0.2500 0.2500   x coordinate   2.3333
     high-symmetry point:  0.1667 0.2500 0.4167   x coordinate   2.5000
     high-symmetry point:  0.1667 0.2500-0.5000   x coordinate   2.5000
     high-symmetry point:  0.1667 0.3333 0.3333   x coordinate   2.5000
     high-symmetry point:  0.1667 0.3333 0.4167   x coordinate   2.5833
     high-symmetry point:  0.1667 0.3333-0.5000   x coordinate   2.5833
     high-symmetry point:  0.1667 0.4167 0.4167   x coordinate   2.5833
     high-symmetry point:  0.1667 0.4167-0.5000   x coordinate   2.5833
     high-symmetry point:  0.1667-0.5000-0.5000   x coordinate   2.5833
     high-symmetry point:  0.2500 0.2500 0.2500   x coordinate   2.5833
     high-symmetry point:  0.2500 0.2500 0.4167   x coordinate   2.7500
     high-symmetry point:  0.2500 0.2500-0.5000   x coordinate   2.7500
     high-symmetry point:  0.2500 0.3333 0.3333   x coordinate   2.7500
     high-symmetry point:  0.2500 0.3333 0.4167   x coordinate   2.8333
     high-symmetry point:  0.2500 0.3333-0.5000   x coordinate   2.8333
     high-symmetry point:  0.2500 0.4167 0.4167   x coordinate   2.8333
     high-symmetry point:  0.2500 0.4167-0.5000   x coordinate   2.8333
     high-symmetry point:  0.2500-0.5000-0.5000   x coordinate   2.8333
     high-symmetry point:  0.3333 0.3333 0.3333   x coordinate   2.8333
     high-symmetry point:  0.3333 0.3333 0.4167   x coordinate   2.9167
     high-symmetry point:  0.3333 0.3333-0.5000   x coordinate   2.9167
     high-symmetry point:  0.3333 0.4167 0.4167   x coordinate   2.9167
     high-symmetry point:  0.3333 0.4167-0.5000   x coordinate   2.9167
     high-symmetry point:  0.3333-0.5000-0.5000   x coordinate   2.9167
     high-symmetry point:  0.4167 0.4167 0.4167   x coordinate   2.9167
     high-symmetry point:  0.4167 0.4167-0.5000   x coordinate   2.9167
     high-symmetry point:  0.4167-0.5000-0.5000   x coordinate   2.9167
     high-symmetry point: -0.5000-0.5000-0.5000   x coordinate   2.9167

     Plottable bands (eV) written to file ZnO.dat.gnu
     Bands written to file ZnO.dat

 **************************************************************************

                    xk=(   0.00000,   0.00000,   0.00000  )

     point group T_d (-43m) 
     there are  5 classes
     the character table:

       E     8C3   3C2   6S4   6s_d 
A_1    1.00  1.00  1.00  1.00  1.00
A_2    1.00  1.00  1.00 -1.00 -1.00
E      2.00 -1.00  2.00  0.00  0.00
T_1    3.00  0.00 -1.00  1.00 -1.00
T_2    3.00  0.00 -1.00 -1.00  1.00

     the symmetry operations in each class and the name of the first element:

     E        1
                                                                 
     8C3      5    7    8    6   12    9   10   11
                                                                 
     3C2      2    3    4
                                                                 
     6S4     15   16   20   19   23   24
                                                                 
     6s_d    13   14   17   18   21   22
                                                                 

     Band symmetry, T_d (-43m)  point group:

     e(  1 -  1) =    -10.77584  eV     1   --> A_1  G_1  P_1  
     e(  2 -  4) =     -9.86224  eV     3   --> T_2  G_15 P_4  
     e(  5 -  7) =      1.09991  eV     3   --> A_1  G_1  P_1  
     e(  5 -  7) =      1.09991  eV     3   --> E    G_12 P_3  
     e(  8 - 10) =      1.60517  eV     3   --> T_2  G_15 P_4  
     e( 11 - 16) =      2.49924  eV     6   --> T_1  G_25 P_5  
     e( 11 - 16) =      2.49924  eV     6   --> T_2  G_15 P_4  
     e( 17 - 18) =      2.94686  eV     2   --> E    G_12 P_3  
     e( 19 - 21) =      2.95358  eV     3   --> T_2  G_15 P_4  
     e( 22 - 24) =      3.10042  eV     3   --> A_2  G_2  P_2  
     e( 22 - 24) =      3.10042  eV     3   --> E    G_12 P_3  
     e( 25 - 27) =      4.14883  eV     3   --> A_1  G_1  P_1  
     e( 25 - 27) =      4.14883  eV     3   --> E    G_12 P_3  
     e( 28 - 33) =      5.10949  eV     6   --> T_1  G_25 P_5  
     e( 28 - 33) =      5.10949  eV     6   --> T_2  G_15 P_4  
     e( 34 - 36) =      7.36378  eV     3   --> T_2  G_15 P_4  

 **************************************************************************

 **************************************************************************

                    xk=(   0.00000,   0.00000,   0.08333  )

     point group C_2v (mm2) 
     there are  4 classes
     the character table:

       E     C2    s_v   s_v' 
A_1    1.00  1.00  1.00  1.00
A_2    1.00  1.00 -1.00 -1.00
B_1    1.00 -1.00  1.00 -1.00
B_2    1.00 -1.00 -1.00  1.00

     the symmetry operations in each class and the name of the first element:

     E        1
                                                                 
     C2       2
                                                                 
     s_v      3
                                                                 
     s_v'     4
                                                                 

     Band symmetry, C_2v (mm2)  point group:

     e(  1 -  1) =    -10.76091  eV     1   --> A_1  D_1  S_1  
     e(  2 -  2) =     -9.87840  eV     1   --> A_1  D_1  S_1  
     e(  3 -  4) =     -9.86203  eV     2   --> B_1  D_3  S_3  
     e(  3 -  4) =     -9.86203  eV     2   --> B_2  D_4  S_4  
     e(  5 -  5) =      1.09783  eV     1   --> A_1  D_1  S_1  
     e(  6 -  7) =      1.12388  eV     2   --> A_1  D_1  S_1  
     e(  6 -  7) =      1.12388  eV     2   --> A_2  D_2  S_2  
     e(  8 -  8) =      1.58749  eV     1   --> A_1  D_1  S_1  
     e(  9 - 10) =      1.61492  eV     2   --> B_1  D_3  S_3  
     e(  9 - 10) =      1.61492  eV     2   --> B_2  D_4  S_4  
     e( 11 - 12) =      2.47180  eV     2   --> B_1  D_3  S_3  
     e( 11 - 12) =      2.47180  eV     2   --> B_2  D_4  S_4  
     e( 13 - 14) =      2.49001  eV     2   --> B_1  D_3  S_3  
     e( 13 - 14) =      2.49001  eV     2   --> B_2  D_4  S_4  
     e( 15 - 16) =      2.49425  eV     2   --> A_1  D_1  S_1  
     e( 15 - 16) =      2.49425  eV     2   --> A_2  D_2  S_2  
     e( 17 - 17) =      2.92915  eV     1   --> A_1  D_1  S_1  
     e( 18 - 18) =      2.94138  eV     1   --> A_1  D_1  S_1  
     e( 19 - 19) =      2.94950  eV     1   --> A_2  D_2  S_2  
     e( 20 - 21) =      2.97989  eV     2   --> B_1  D_3  S_3  
     e( 20 - 21) =      2.97989  eV     2   --> B_2  D_4  S_4  
     e( 22 - 23) =      3.09397  eV     2   --> A_1  D_1  S_1  
     e( 22 - 23) =      3.09397  eV     2   --> A_2  D_2  S_2  
     e( 24 - 24) =      3.09757  eV     1   --> A_2  D_2  S_2  
     e( 25 - 26) =      4.10808  eV     2   --> A_1  D_1  S_1  
     e( 25 - 26) =      4.10808  eV     2   --> A_2  D_2  S_2  
     e( 27 - 27) =      4.21584  eV     1   --> A_1  D_1  S_1  
     e( 28 - 29) =      5.06271  eV     2   --> B_1  D_3  S_3  
     e( 28 - 29) =      5.06271  eV     2   --> B_2  D_4  S_4  
     e( 30 - 31) =      5.12485  eV     2   --> A_1  D_1  S_1  
     e( 30 - 31) =      5.12485  eV     2   --> A_2  D_2  S_2  
     e( 32 - 33) =      5.15811  eV     2   --> B_1  D_3  S_3  
     e( 32 - 33) =      5.15811  eV     2   --> B_2  D_4  S_4  
     e( 34 - 34) =      7.12240  eV     1   --> A_1  D_1  S_1  
     e( 35 - 36) =      7.32958  eV     2   --> B_1  D_3  S_3  
     e( 35 - 36) =      7.32958  eV     2   --> B_2  D_4  S_4  

 **************************************************************************

 **************************************************************************

                    xk=(   0.00000,   0.00000,   0.16667  )

     Band symmetry, C_2v (mm2)  point group:

     e(  1 -  1) =    -10.71703  eV     1   --> A_1  D_1  S_1  
     e(  2 -  2) =     -9.92567  eV     1   --> A_1  D_1  S_1  
     e(  3 -  4) =     -9.86137  eV     2   --> B_1  D_3  S_3  
     e(  3 -  4) =     -9.86137  eV     2   --> B_2  D_4  S_4  
     e(  5 -  5) =      1.09443  eV     1   --> A_1  D_1  S_1  
     e(  6 -  7) =      1.19366  eV     2   --> A_1  D_1  S_1  
     e(  6 -  7) =      1.19366  eV     2   --> A_2  D_2  S_2  
     e(  8 -  8) =      1.53647  eV     1   --> A_1  D_1  S_1  
     e(  9 - 10) =      1.64308  eV     2   --> B_1  D_3  S_3  
     e(  9 - 10) =      1.64308  eV     2   --> B_2  D_4  S_4  
     e( 11 - 12) =      2.39724  eV     2   --> B_1  D_3  S_3  
     e( 11 - 12) =      2.39724  eV     2   --> B_2  D_4  S_4  
     e( 13 - 14) =      2.46911  eV     2   --> B_1  D_3  S_3  
     e( 13 - 14) =      2.46911  eV     2   --> B_2  D_4  S_4  
     e( 15 - 16) =      2.47818  eV     2   --> A_1  D_1  S_1  
     e( 15 - 16) =      2.47818  eV     2   --> A_2  D_2  S_2  
     e( 17 - 17) =      2.87607  eV     1   --> A_1  D_1  S_1  
     e( 18 - 18) =      2.92489  eV     1   --> A_1  D_1  S_1  
     e( 19 - 19) =      2.95712  eV     1   --> A_2  D_2  S_2  
     e( 20 - 21) =      3.05294  eV     2   --> B_1  D_3  S_3  
     e( 20 - 21) =      3.05294  eV     2   --> B_2  D_4  S_4  
     e( 22 - 23) =      3.07477  eV     2   --> A_1  D_1  S_1  
     e( 22 - 23) =      3.07477  eV     2   --> A_2  D_2  S_2  
     e( 24 - 24) =      3.08968  eV     1   --> A_2  D_2  S_2  
     e( 25 - 26) =      4.00393  eV     2   --> A_1  D_1  S_1  
     e( 25 - 26) =      4.00393  eV     2   --> A_2  D_2  S_2  
     e( 27 - 27) =      4.39208  eV     1   --> A_1  D_1  S_1  
     e( 28 - 29) =      4.93396  eV     2   --> B_1  D_3  S_3  
     e( 28 - 29) =      4.93396  eV     2   --> B_2  D_4  S_4  
     e( 30 - 31) =      5.16132  eV     2   --> A_1  D_1  S_1  
     e( 30 - 31) =      5.16132  eV     2   --> A_2  D_2  S_2  
     e( 32 - 33) =      5.29600  eV     2   --> B_1  D_3  S_3  
     e( 32 - 33) =      5.29600  eV     2   --> B_2  D_4  S_4  
     e( 34 - 34) =      6.74702  eV     1   --> A_1  D_1  S_1  
     e( 35 - 36) =      7.22884  eV     2   --> B_1  D_3  S_3  
     e( 35 - 36) =      7.22884  eV     2   --> B_2  D_4  S_4  

 **************************************************************************

 **************************************************************************

                    xk=(   0.00000,   0.00000,   0.25000  )

     Band symmetry, C_2v (mm2)  point group:

     e(  1 -  1) =    -10.64681  eV     1   --> A_1  D_1  S_1  
     e(  2 -  2) =    -10.00049  eV     1   --> A_1  D_1  S_1  
     e(  3 -  4) =     -9.86049  eV     2   --> B_1  D_3  S_3  
     e(  3 -  4) =     -9.86049  eV     2   --> B_2  D_4  S_4  
     e(  5 -  5) =      1.09660  eV     1   --> A_1  D_1  S_1  
     e(  6 -  7) =      1.30109  eV     2   --> A_1  D_1  S_1  
     e(  6 -  7) =      1.30109  eV     2   --> A_2  D_2  S_2  
     e(  8 -  8) =      1.46073  eV     1   --> A_1  D_1  S_1  
     e(  9 - 10) =      1.69012  eV     2   --> B_1  D_3  S_3  
     e(  9 - 10) =      1.69012  eV     2   --> B_2  D_4  S_4  
     e( 11 - 12) =      2.29223  eV     2   --> B_1  D_3  S_3  
     e( 11 - 12) =      2.29223  eV     2   --> B_2  D_4  S_4  
     e( 13 - 14) =      2.44544  eV     2   --> B_1  D_3  S_3  
     e( 13 - 14) =      2.44544  eV     2   --> B_2  D_4  S_4  
     e( 15 - 16) =      2.44699  eV     2   --> A_1  D_1  S_1  
     e( 15 - 16) =      2.44699  eV     2   --> A_2  D_2  S_2  
     e( 17 - 17) =      2.82754  eV     1   --> A_1  D_1  S_1  
     e( 18 - 18) =      2.90012  eV     1   --> A_1  D_1  S_1  
     e( 19 - 19) =      2.96925  eV     1   --> A_2  D_2  S_2  
     e( 20 - 21) =      3.04090  eV     2   --> A_1  D_1  S_1  
     e( 20 - 21) =      3.04090  eV     2   --> A_2  D_2  S_2  
     e( 22 - 22) =      3.07763  eV     1   --> A_2  D_2  S_2  
     e( 23 - 24) =      3.15919  eV     2   --> B_1  D_3  S_3  
     e( 23 - 24) =      3.15919  eV     2   --> B_2  D_4  S_4  
     e( 25 - 26) =      3.87552  eV     2   --> A_1  D_1  S_1  
     e( 25 - 26) =      3.87552  eV     2   --> A_2  D_2  S_2  
     e( 27 - 27) =      4.63196  eV     1   --> A_1  D_1  S_1  
     e( 28 - 29) =      4.75163  eV     2   --> B_1  D_3  S_3  
     e( 28 - 29) =      4.75163  eV     2   --> B_2  D_4  S_4  
     e( 30 - 31) =      5.20143  eV     2   --> A_1  D_1  S_1  
     e( 30 - 31) =      5.20143  eV     2   --> A_2  D_2  S_2  
     e( 32 - 33) =      5.50367  eV     2   --> B_1  D_3  S_3  
     e( 32 - 33) =      5.50367  eV     2   --> B_2  D_4  S_4  
     e( 34 - 34) =      6.38928  eV     1   --> A_1  D_1  S_1  
     e( 35 - 36) =      7.06752  eV     2   --> B_1  D_3  S_3  
     e( 35 - 36) =      7.06752  eV     2   --> B_2  D_4  S_4  

 **************************************************************************

 **************************************************************************

                    xk=(   0.00000,   0.00000,   0.33333  )

     Band symmetry, C_2v (mm2)  point group:

     e(  1 -  1) =    -10.55453  eV     1   --> A_1  D_1  S_1  
     e(  2 -  2) =    -10.09741  eV     1   --> A_1  D_1  S_1  
     e(  3 -  4) =     -9.85961  eV     2   --> B_1  D_3  S_3  
     e(  3 -  4) =     -9.85961  eV     2   --> B_2  D_4  S_4  
     e(  5 -  5) =      1.11219  eV     1   --> A_1  D_1  S_1  
     e(  6 -  6) =      1.37209  eV     1   --> A_1  D_1  S_1  
     e(  7 -  8) =      1.43023  eV     2   --> A_1  D_1  S_1  
     e(  7 -  8) =      1.43023  eV     2   --> A_2  D_2  S_2  
     e(  9 - 10) =      1.75588  eV     2   --> B_1  D_3  S_3  
     e(  9 - 10) =      1.75588  eV     2   --> B_2  D_4  S_4  
     e( 11 - 12) =      2.17269  eV     2   --> B_1  D_3  S_3  
     e( 11 - 12) =      2.17269  eV     2   --> B_2  D_4  S_4  
     e( 13 - 14) =      2.39701  eV     2   --> A_1  D_1  S_1  
     e( 13 - 14) =      2.39701  eV     2   --> A_2  D_2  S_2  
     e( 15 - 16) =      2.42574  eV     2   --> B_1  D_3  S_3  
     e( 15 - 16) =      2.42574  eV     2   --> B_2  D_4  S_4  
     e( 17 - 17) =      2.80025  eV     1   --> A_1  D_1  S_1  
     e( 18 - 18) =      2.87024  eV     1   --> A_1  D_1  S_1  
     e( 19 - 19) =      2.98509  eV     1   --> A_2  D_2  S_2  
     e( 20 - 21) =      2.99696  eV     2   --> A_1  D_1  S_1  
     e( 20 - 21) =      2.99696  eV     2   --> A_2  D_2  S_2  
     e( 22 - 22) =      3.06171  eV     1   --> A_2  D_2  S_2  
     e( 23 - 24) =      3.28212  eV     2   --> B_1  D_3  S_3  
     e( 23 - 24) =      3.28212  eV     2   --> B_2  D_4  S_4  
     e( 25 - 26) =      3.76269  eV     2   --> A_1  D_1  S_1  
     e( 25 - 26) =      3.76269  eV     2   --> A_2  D_2  S_2  
     e( 27 - 28) =      4.55386  eV     2   --> B_1  D_3  S_3  
     e( 27 - 28) =      4.55386  eV     2   --> B_2  D_4  S_4  
     e( 29 - 29) =      4.90119  eV     1   --> A_1  D_1  S_1  
     e( 30 - 31) =      5.23413  eV     2   --> A_1  D_1  S_1  
     e( 30 - 31) =      5.23413  eV     2   --> A_2  D_2  S_2  
     e( 32 - 33) =      5.75819  eV     2   --> B_1  D_3  S_3  
     e( 32 - 33) =      5.75819  eV     2   --> B_2  D_4  S_4  
     e( 34 - 34) =      6.06120  eV     1   --> A_1  D_1  S_1  
     e( 35 - 36) =      6.85492  eV     2   --> B_1  D_3  S_3  
     e( 35 - 36) =      6.85492  eV     2   --> B_2  D_4  S_4  

 **************************************************************************

 **************************************************************************

                    xk=(   0.00000,   0.00000,   0.41667  )

     Band symmetry, C_2v (mm2)  point group:

     e(  1 -  1) =    -10.44601  eV     1   --> A_1  D_1  S_1  
     e(  2 -  2) =    -10.20934  eV     1   --> A_1  D_1  S_1  
     e(  3 -  4) =     -9.85896  eV     2   --> B_1  D_3  S_3  
     e(  3 -  4) =     -9.85896  eV     2   --> B_2  D_4  S_4  
     e(  5 -  5) =      1.14793  eV     1   --> A_1  D_1  S_1  
     e(  6 -  6) =      1.28335  eV     1   --> A_1  D_1  S_1  
     e(  7 -  8) =      1.54865  eV     2   --> A_1  D_1  S_1  
     e(  7 -  8) =      1.54865  eV     2   --> A_2  D_2  S_2  
     e(  9 - 10) =      1.83949  eV     2   --> B_1  D_3  S_3  
     e(  9 - 10) =      1.83949  eV     2   --> B_2  D_4  S_4  
     e( 11 - 12) =      2.05219  eV     2   --> B_1  D_3  S_3  
     e( 11 - 12) =      2.05219  eV     2   --> B_2  D_4  S_4  
     e( 13 - 14) =      2.33680  eV     2   --> A_1  D_1  S_1  
     e( 13 - 14) =      2.33680  eV     2   --> A_2  D_2  S_2  
     e( 15 - 16) =      2.41304  eV     2   --> B_1  D_3  S_3  
     e( 15 - 16) =      2.41304  eV     2   --> B_2  D_4  S_4  
     e( 17 - 17) =      2.79669  eV     1   --> A_1  D_1  S_1  
     e( 18 - 18) =      2.83866  eV     1   --> A_1  D_1  S_1  
     e( 19 - 20) =      2.95832  eV     2   --> A_1  D_1  S_1  
     e( 19 - 20) =      2.95832  eV     2   --> A_2  D_2  S_2  
     e( 21 - 21) =      3.00356  eV     1   --> A_2  D_2  S_2  
     e( 22 - 22) =      3.04317  eV     1   --> A_2  D_2  S_2  
     e( 23 - 24) =      3.39393  eV     2   --> B_1  D_3  S_3  
     e( 23 - 24) =      3.39393  eV     2   --> B_2  D_4  S_4  
     e( 25 - 26) =      3.69056  eV     2   --> A_1  D_1  S_1  
     e( 25 - 26) =      3.69056  eV     2   --> A_2  D_2  S_2  
     e( 27 - 28) =      4.38846  eV     2   --> B_1  D_3  S_3  
     e( 27 - 28) =      4.38846  eV     2   --> B_2  D_4  S_4  
     e( 29 - 29) =      5.18136  eV     1   --> A_1  D_1  S_1  
     e( 30 - 31) =      5.25460  eV     2   --> A_1  D_1  S_1  
     e( 30 - 31) =      5.25460  eV     2   --> A_2  D_2  S_2  
     e( 32 - 32) =      5.75651  eV     1   --> A_1  D_1  S_1  
     e( 33 - 34) =      6.03849  eV     2   --> B_1  D_3  S_3  
     e( 33 - 34) =      6.03849  eV     2   --> B_2  D_4  S_4  
     e( 35 - 36) =      6.60301  eV     2   --> B_1  D_3  S_3  
     e( 35 - 36) =      6.60301  eV     2   --> B_2  D_4  S_4  

 **************************************************************************

 **************************************************************************

                    xk=(   0.00000,   0.00000,  -0.50000  )

     point group D_2d (-42m)
     there are  5 classes
     the character table:

       E     2S4   C2    2C2'  2s_d 
A_1    1.00  1.00  1.00  1.00  1.00
A_2    1.00  1.00  1.00 -1.00 -1.00
B_1    1.00 -1.00  1.00  1.00 -1.00
B_2    1.00 -1.00  1.00 -1.00  1.00
E      2.00  0.00 -2.00  0.00  0.00

     the symmetry operations in each class and the name of the first element:

     E        1
                                                                 
     2S4      7    8
                                                                 
     C2       2
                                                                 
     2C2'     3    4
                                                                 
     2s_d     5    6
                                                                 

     Band symmetry, D_2d (-42m) point group:

     e(  1 -  2) =    -10.32831  eV     2   --> A_1  X_1  W_1  
     e(  1 -  2) =    -10.32831  eV     2   --> B_2  X_3  W_2  
     e(  3 -  4) =     -9.85871  eV     2   --> E    X_5  W_3  
     e(  5 -  6) =      1.20589  eV     2   --> A_1  X_1  W_1  
     e(  5 -  6) =      1.20589  eV     2   --> B_2  X_3  W_2  
     e(  7 -  8) =      1.60083  eV     2   --> B_1  X_2  W_1' 
     e(  7 -  8) =      1.60083  eV     2   --> B_2  X_3  W_2  
     e(  9 - 12) =      1.93895  eV     4   -->   2 E    X_5  W_3  
     e( 13 - 14) =      2.30560  eV     2   --> A_1  X_1  W_1  
     e( 13 - 14) =      2.30560  eV     2   --> A_2  X_4  W_2' 
     e( 15 - 16) =      2.40882  eV     2   --> E    X_5  W_3  
     e( 17 - 18) =      2.81156  eV     2   --> A_1  X_1  W_1  
     e( 17 - 18) =      2.81156  eV     2   --> B_2  X_3  W_2  
     e( 19 - 20) =      2.94296  eV     2   --> B_1  X_2  W_1' 
     e( 19 - 20) =      2.94296  eV     2   --> B_2  X_3  W_2  
     e( 21 - 22) =      3.02294  eV     2   --> A_2  X_4  W_2' 
     e( 21 - 22) =      3.02294  eV     2   --> B_1  X_2  W_1' 
     e( 23 - 24) =      3.44365  eV     2   --> E    X_5  W_3  
     e( 25 - 26) =      3.66654  eV     2   --> A_1  X_1  W_1  
     e( 25 - 26) =      3.66654  eV     2   --> A_2  X_4  W_2' 
     e( 27 - 28) =      4.31955  eV     2   --> E    X_5  W_3  
     e( 29 - 30) =      5.26151  eV     2   --> B_1  X_2  W_1' 
     e( 29 - 30) =      5.26151  eV     2   --> B_2  X_3  W_2  
     e( 31 - 32) =      5.46566  eV     2   --> A_1  X_1  W_1  
     e( 31 - 32) =      5.46566  eV     2   --> B_2  X_3  W_2  
     e( 33 - 36) =      6.32562  eV     4   -->   2 E    X_5  W_3  

 **************************************************************************

 **************************************************************************

                    xk=(   0.00000,   0.08333,   0.08333  )

     point group C_s (m)    
     there are  2 classes
     the character table:

       E     s    
A'     1.00  1.00
A''    1.00 -1.00

     the symmetry operations in each class and the name of the first element:

     E        1
                                                                 
     s        2
                                                                 

     Band symmetry, C_s (m)     point group:

     e(  1 -  1) =    -10.74619  eV     1   --> A'             
     e(  2 -  3) =     -9.87787  eV     2   --> A'             
     e(  2 -  3) =     -9.87787  eV     2   --> A''            
     e(  4 -  4) =     -9.86203  eV     1   --> A'             
     e(  5 -  6) =      1.12177  eV     2   --> A'             
     e(  5 -  6) =      1.12177  eV     2   --> A''            
     e(  7 -  7) =      1.14709  eV     1   --> A'             
     e(  8 -  8) =      1.57592  eV     1   --> A'             
     e(  9 -  9) =      1.61862  eV     1   --> A''            
     e( 10 - 10) =      1.62376  eV     1   --> A'             
     e( 11 - 12) =      2.45636  eV     2   --> A'             
     e( 11 - 12) =      2.45636  eV     2   --> A''            
     e( 13 - 13) =      2.47058  eV     1   --> A''            
     e( 14 - 15) =      2.47207  eV     2   --> A'             
     e( 14 - 15) =      2.47207  eV     2   --> A''            
     e( 16 - 16) =      2.50257  eV     1   --> A'             
     e( 17 - 17) =      2.94012  eV     1   --> A''            
     e( 18 - 18) =      2.94819  eV     1   --> A'             
     e( 19 - 20) =      2.95404  eV     2   --> A'             
     e( 19 - 20) =      2.95404  eV     2   --> A''            
     e( 21 - 21) =      3.00498  eV     1   --> A'             
     e( 22 - 22) =      3.08839  eV     1   --> A''            
     e( 23 - 24) =      3.09230  eV     2   --> A'             
     e( 23 - 24) =      3.09230  eV     2   --> A''            
     e( 25 - 25) =      4.05786  eV     1   --> A'             
     e( 26 - 27) =      4.17405  eV     2   --> A'             
     e( 26 - 27) =      4.17405  eV     2   --> A''            
     e( 28 - 28) =      4.99323  eV     1   --> A'             
     e( 29 - 30) =      5.11233  eV     2   --> A'             
     e( 29 - 30) =      5.11233  eV     2   --> A''            
     e( 31 - 32) =      5.17488  eV     2   --> A'             
     e( 31 - 32) =      5.17488  eV     2   --> A''            
     e( 33 - 33) =      5.17747  eV     1   --> A''            
     e( 34 - 34) =      6.92978  eV     1   --> A'             
     e( 35 - 35) =      7.29467  eV     1   --> A'             
     e( 36 - 36) =      7.34457  eV     1   --> A''            

 **************************************************************************

 **************************************************************************

                    xk=(   0.00000,   0.08333,   0.16667  )

     point group C_1 (1)    
     there are  1 classes
     the character table:

       E    
A      1.00

     the symmetry operations in each class and the name of the first element:

     E        1
                                                                 

     Band symmetry, C_1 (1)     point group:

     e(  1 -  1) =    -10.70291  eV     1   --> A              
     e(  2 -  2) =     -9.92423  eV     1   --> A              
     e(  3 -  3) =     -9.87633  eV     1   --> A              
     e(  4 -  4) =     -9.86213  eV     1   --> A              
     e(  5 -  5) =      1.11820  eV     1   --> A              
     e(  6 -  6) =      1.19166  eV     1   --> A              
     e(  7 -  7) =      1.21434  eV     1   --> A              
     e(  8 -  8) =      1.53034  eV     1   --> A              
     e(  9 -  9) =      1.64369  eV     1   --> A              
     e( 10 - 10) =      1.65060  eV     1   --> A              
     e( 11 - 11) =      2.37660  eV     1   --> A              
     e( 12 - 12) =      2.40075  eV     1   --> A              
     e( 13 - 13) =      2.41653  eV     1   --> A              
     e( 14 - 14) =      2.43673  eV     1   --> A              
     e( 15 - 15) =      2.47319  eV     1   --> A              
     e( 16 - 16) =      2.50685  eV     1   --> A              
     e( 17 - 17) =      2.89830  eV     1   --> A              
     e( 18 - 18) =      2.92589  eV     1   --> A              
     e( 19 - 19) =      2.95470  eV     1   --> A              
     e( 20 - 20) =      3.01886  eV     1   --> A              
     e( 21 - 21) =      3.06630  eV     1   --> A              
     e( 22 - 22) =      3.07782  eV     1   --> A              
     e( 23 - 23) =      3.07929  eV     1   --> A              
     e( 24 - 24) =      3.08669  eV     1   --> A              
     e( 25 - 25) =      3.92824  eV     1   --> A              
     e( 26 - 26) =      4.06676  eV     1   --> A              
     e( 27 - 27) =      4.34587  eV     1   --> A              
     e( 28 - 28) =      4.87659  eV     1   --> A              
     e( 29 - 29) =      4.98669  eV     1   --> A              
     e( 30 - 30) =      5.21483  eV     1   --> A              
     e( 31 - 31) =      5.23965  eV     1   --> A              
     e( 32 - 32) =      5.25193  eV     1   --> A              
     e( 33 - 33) =      5.31791  eV     1   --> A              
     e( 34 - 34) =      6.60051  eV     1   --> A              
     e( 35 - 35) =      7.19221  eV     1   --> A              
     e( 36 - 36) =      7.27530  eV     1   --> A              

 **************************************************************************

 **************************************************************************

                    xk=(   0.00000,   0.08333,   0.25000  )

     Band symmetry, C_1 (1)     point group:

     e(  1 -  1) =    -10.63367  eV     1   --> A              
     e(  2 -  2) =     -9.99769  eV     1   --> A              
     e(  3 -  3) =     -9.87403  eV     1   --> A              
     e(  4 -  4) =     -9.86244  eV     1   --> A              
     e(  5 -  5) =      1.11931  eV     1   --> A              
     e(  6 -  6) =      1.30021  eV     1   --> A              
     e(  7 -  7) =      1.31801  eV     1   --> A              
     e(  8 -  8) =      1.45913  eV     1   --> A              
     e(  9 -  9) =      1.68971  eV     1   --> A              
     e( 10 - 10) =      1.69526  eV     1   --> A              
     e( 11 - 11) =      2.27044  eV     1   --> A              
     e( 12 - 12) =      2.29555  eV     1   --> A              
     e( 13 - 13) =      2.36148  eV     1   --> A              
     e( 14 - 14) =      2.39146  eV     1   --> A              
     e( 15 - 15) =      2.47525  eV     1   --> A              
     e( 16 - 16) =      2.50776  eV     1   --> A              
     e( 17 - 17) =      2.84642  eV     1   --> A              
     e( 18 - 18) =      2.90231  eV     1   --> A              
     e( 19 - 19) =      2.96720  eV     1   --> A              
     e( 20 - 20) =      3.03463  eV     1   --> A              
     e( 21 - 21) =      3.03679  eV     1   --> A              
     e( 22 - 22) =      3.07650  eV     1   --> A              
     e( 23 - 23) =      3.12201  eV     1   --> A              
     e( 24 - 24) =      3.18027  eV     1   --> A              
     e( 25 - 25) =      3.76734  eV     1   --> A              
     e( 26 - 26) =      3.93201  eV     1   --> A              
     e( 27 - 27) =      4.57678  eV     1   --> A              
     e( 28 - 28) =      4.73595  eV     1   --> A              
     e( 29 - 29) =      4.81104  eV     1   --> A              
     e( 30 - 30) =      5.25967  eV     1   --> A              
     e( 31 - 31) =      5.28829  eV     1   --> A              
     e( 32 - 32) =      5.46016  eV     1   --> A              
     e( 33 - 33) =      5.53512  eV     1   --> A              
     e( 34 - 34) =      6.26612  eV     1   --> A              
     e( 35 - 35) =      7.02854  eV     1   --> A              
     e( 36 - 36) =      7.12682  eV     1   --> A              

 **************************************************************************

 **************************************************************************

                    xk=(   0.00000,   0.08333,   0.33333  )

     Band symmetry, C_1 (1)     point group:

     e(  1 -  1) =    -10.54272  eV     1   --> A              
     e(  2 -  2) =    -10.09288  eV     1   --> A              
     e(  3 -  3) =     -9.87135  eV     1   --> A              
     e(  4 -  4) =     -9.86316  eV     1   --> A              
     e(  5 -  5) =      1.13276  eV     1   --> A              
     e(  6 -  6) =      1.37530  eV     1   --> A              
     e(  7 -  7) =      1.43180  eV     1   --> A              
     e(  8 -  8) =      1.44233  eV     1   --> A              
     e(  9 -  9) =      1.75467  eV     1   --> A              
     e( 10 - 10) =      1.75791  eV     1   --> A              
     e( 11 - 11) =      2.15403  eV     1   --> A              
     e( 12 - 12) =      2.17472  eV     1   --> A              
     e( 13 - 13) =      2.29772  eV     1   --> A              
     e( 14 - 14) =      2.33337  eV     1   --> A              
     e( 15 - 15) =      2.47883  eV     1   --> A              
     e( 16 - 16) =      2.50551  eV     1   --> A              
     e( 17 - 17) =      2.81529  eV     1   --> A              
     e( 18 - 18) =      2.87376  eV     1   --> A              
     e( 19 - 19) =      2.98380  eV     1   --> A              
     e( 20 - 20) =      2.98444  eV     1   --> A              
     e( 21 - 21) =      2.99386  eV     1   --> A              
     e( 22 - 22) =      3.06184  eV     1   --> A              
     e( 23 - 23) =      3.22312  eV     1   --> A              
     e( 24 - 24) =      3.30331  eV     1   --> A              
     e( 25 - 25) =      3.62539  eV     1   --> A              
     e( 26 - 26) =      3.80548  eV     1   --> A              
     e( 27 - 27) =      4.58982  eV     1   --> A              
     e( 28 - 28) =      4.62583  eV     1   --> A              
     e( 29 - 29) =      4.83417  eV     1   --> A              
     e( 30 - 30) =      5.29769  eV     1   --> A              
     e( 31 - 31) =      5.32040  eV     1   --> A              
     e( 32 - 32) =      5.71424  eV     1   --> A              
     e( 33 - 33) =      5.80170  eV     1   --> A              
     e( 34 - 34) =      5.95132  eV     1   --> A              
     e( 35 - 35) =      6.81355  eV     1   --> A              
     e( 36 - 36) =      6.91992  eV     1   --> A              

 **************************************************************************

 **************************************************************************

                    xk=(   0.00000,   0.08333,   0.41667  )

     Band symmetry, C_1 (1)     point group:

     e(  1 -  1) =    -10.43581  eV     1   --> A              
     e(  2 -  2) =    -10.20292  eV     1   --> A              
     e(  3 -  3) =     -9.86865  eV     1   --> A              
     e(  4 -  4) =     -9.86440  eV     1   --> A              
     e(  5 -  5) =      1.16514  eV     1   --> A              
     e(  6 -  6) =      1.29156  eV     1   --> A              
     e(  7 -  7) =      1.55425  eV     1   --> A              
     e(  8 -  8) =      1.55723  eV     1   --> A              
     e(  9 -  9) =      1.83595  eV     1   --> A              
     e( 10 - 10) =      1.83937  eV     1   --> A              
     e( 11 - 11) =      2.03833  eV     1   --> A              
     e( 12 - 12) =      2.05281  eV     1   --> A              
     e( 13 - 13) =      2.23830  eV     1   --> A              
     e( 14 - 14) =      2.26553  eV     1   --> A              
     e( 15 - 15) =      2.48441  eV     1   --> A              
     e( 16 - 16) =      2.49998  eV     1   --> A              
     e( 17 - 17) =      2.80787  eV     1   --> A              
     e( 18 - 18) =      2.84405  eV     1   --> A              
     e( 19 - 19) =      2.93813  eV     1   --> A              
     e( 20 - 20) =      2.94825  eV     1   --> A              
     e( 21 - 21) =      3.00315  eV     1   --> A              
     e( 22 - 22) =      3.04360  eV     1   --> A              
     e( 23 - 23) =      3.31787  eV     1   --> A              
     e( 24 - 24) =      3.40728  eV     1   --> A              
     e( 25 - 25) =      3.54923  eV     1   --> A              
     e( 26 - 26) =      3.70199  eV     1   --> A              
     e( 27 - 27) =      4.47045  eV     1   --> A              
     e( 28 - 28) =      4.47947  eV     1   --> A              
     e( 29 - 29) =      5.10202  eV     1   --> A              
     e( 30 - 30) =      5.32407  eV     1   --> A              
     e( 31 - 31) =      5.33634  eV     1   --> A              
     e( 32 - 32) =      5.65647  eV     1   --> A              
     e( 33 - 33) =      5.99393  eV     1   --> A              
     e( 34 - 34) =      6.09317  eV     1   --> A              
     e( 35 - 35) =      6.55971  eV     1   --> A              
     e( 36 - 36) =      6.66902  eV     1   --> A              

 **************************************************************************

 **************************************************************************

                    xk=(   0.00000,   0.08333,  -0.50000  )

     point group C_2  (2)   
     there are  2 classes
     the character table:

       E     C2   
A      1.00  1.00
B      1.00 -1.00

     the symmetry operations in each class and the name of the first element:

     E        1
                                                                 
     C2       2
                                                                 

     Band symmetry, C_2  (2)    point group:

     e(  1 -  2) =    -10.31994  eV     2   --> A              
     e(  1 -  2) =    -10.31994  eV     2   --> B              
     e(  3 -  4) =     -9.86625  eV     2   --> A              
     e(  3 -  4) =     -9.86625  eV     2   --> B              
     e(  5 -  6) =      1.21898  eV     2   --> A              
     e(  5 -  6) =      1.21898  eV     2   --> B              
     e(  7 -  8) =      1.60874  eV     2   --> A              
     e(  7 -  8) =      1.60874  eV     2   --> B              
     e(  9 - 10) =      1.93092  eV     2   --> A              
     e(  9 - 10) =      1.93092  eV     2   --> B              
     e( 11 - 12) =      1.93910  eV     2   --> A              
     e( 11 - 12) =      1.93910  eV     2   --> B              
     e( 13 - 14) =      2.22004  eV     2   --> A              
     e( 13 - 14) =      2.22004  eV     2   --> B              
     e( 15 - 16) =      2.49203  eV     2   --> A              
     e( 15 - 16) =      2.49203  eV     2   --> B              
     e( 17 - 18) =      2.81969  eV     2   --> A              
     e( 17 - 18) =      2.81969  eV     2   --> B              
     e( 19 - 20) =      2.92373  eV     2   --> A              
     e( 19 - 20) =      2.92373  eV     2   --> B              
     e( 21 - 22) =      3.02355  eV     2   --> A              
     e( 21 - 22) =      3.02355  eV     2   --> B              
     e( 23 - 24) =      3.39145  eV     2   --> A              
     e( 23 - 24) =      3.39145  eV     2   --> B              
     e( 25 - 26) =      3.60745  eV     2   --> A              
     e( 25 - 26) =      3.60745  eV     2   --> B              
     e( 27 - 28) =      4.42228  eV     2   --> A              
     e( 27 - 28) =      4.42228  eV     2   --> B              
     e( 29 - 30) =      5.33720  eV     2   --> A              
     e( 29 - 30) =      5.33720  eV     2   --> B              
     e( 31 - 32) =      5.37538  eV     2   --> A              
     e( 31 - 32) =      5.37538  eV     2   --> B              
     e( 33 - 34) =      6.28132  eV     2   --> A              
     e( 33 - 34) =      6.28132  eV     2   --> B              
     e( 35 - 36) =      6.38825  eV     2   --> A              
     e( 35 - 36) =      6.38825  eV     2   --> B              

 **************************************************************************

 **************************************************************************

                    xk=(   0.00000,   0.16667,   0.16667  )

     point group C_s (m)    
     there are  2 classes
     the character table:

       E     s    
A'     1.00  1.00
A''    1.00 -1.00

     the symmetry operations in each class and the name of the first element:

     E        1
                                                                 
     s        2
                                                                 

     Band symmetry, C_s (m)     point group:

     e(  1 -  1) =    -10.66141  eV     1   --> A'             
     e(  2 -  3) =     -9.92009  eV     2   --> A'             
     e(  2 -  3) =     -9.92009  eV     2   --> A''            
     e(  4 -  4) =     -9.86443  eV     1   --> A'             
     e(  5 -  6) =      1.18778  eV     2   --> A'             
     e(  5 -  6) =      1.18778  eV     2   --> A''            
     e(  7 -  7) =      1.27437  eV     1   --> A'             
     e(  8 -  8) =      1.50324  eV     1   --> A'             
     e(  9 -  9) =      1.65671  eV     1   --> A''            
     e( 10 - 10) =      1.67295  eV     1   --> A'             
     e( 11 - 12) =      2.32301  eV     2   --> A'             
     e( 11 - 12) =      2.32301  eV     2   --> A''            
     e( 13 - 13) =      2.39379  eV     1   --> A''            
     e( 14 - 15) =      2.41136  eV     2   --> A'             
     e( 14 - 15) =      2.41136  eV     2   --> A''            
     e( 16 - 16) =      2.54019  eV     1   --> A'             
     e( 17 - 17) =      2.92228  eV     1   --> A''            
     e( 18 - 19) =      2.95213  eV     2   --> A'             
     e( 18 - 19) =      2.95213  eV     2   --> A''            
     e( 20 - 20) =      2.95382  eV     1   --> A'             
     e( 21 - 21) =      3.05857  eV     1   --> A''            
     e( 22 - 23) =      3.07832  eV     2   --> A'             
     e( 22 - 23) =      3.07832  eV     2   --> A''            
     e( 24 - 24) =      3.13532  eV     1   --> A'             
     e( 25 - 25) =      3.73876  eV     1   --> A'             
     e( 26 - 27) =      4.22615  eV     2   --> A'             
     e( 26 - 27) =      4.22615  eV     2   --> A''            
     e( 28 - 28) =      4.79045  eV     1   --> A'             
     e( 29 - 30) =      5.13150  eV     2   --> A'             
     e( 29 - 30) =      5.13150  eV     2   --> A''            
     e( 31 - 31) =      5.36464  eV     1   --> A''            
     e( 32 - 33) =      5.37011  eV     2   --> A'             
     e( 32 - 33) =      5.37011  eV     2   --> A''            
     e( 34 - 34) =      6.31434  eV     1   --> A'             
     e( 35 - 35) =      7.08507  eV     1   --> A'             
     e( 36 - 36) =      7.28491  eV     1   --> A''            

 **************************************************************************

 **************************************************************************

                    xk=(   0.00000,   0.16667,   0.25000  )

     point group C_1 (1)    
     there are  1 classes
     the character table:

       E    
A      1.00

     the symmetry operations in each class and the name of the first element:

     E        1
                                                                 

     Band symmetry, C_1 (1)     point group:

     e(  1 -  1) =    -10.59507  eV     1   --> A              
     e(  2 -  2) =     -9.98956  eV     1   --> A              
     e(  3 -  3) =     -9.91374  eV     1   --> A              
     e(  4 -  4) =     -9.86827  eV     1   --> A              
     e(  5 -  5) =      1.18652  eV     1   --> A              
     e(  6 -  6) =      1.29776  eV     1   --> A              
     e(  7 -  7) =      1.36647  eV     1   --> A              
     e(  8 -  8) =      1.45075  eV     1   --> A              
     e(  9 -  9) =      1.69391  eV     1   --> A              
     e( 10 - 10) =      1.71064  eV     1   --> A              
     e( 11 - 11) =      2.21392  eV     1   --> A              
     e( 12 - 12) =      2.25106  eV     1   --> A              
     e( 13 - 13) =      2.30575  eV     1   --> A              
     e( 14 - 14) =      2.34103  eV     1   --> A              
     e( 15 - 15) =      2.42986  eV     1   --> A              
     e( 16 - 16) =      2.57667  eV     1   --> A              
     e( 17 - 17) =      2.89102  eV     1   --> A              
     e( 18 - 18) =      2.90549  eV     1   --> A              
     e( 19 - 19) =      2.96438  eV     1   --> A              
     e( 20 - 20) =      3.00013  eV     1   --> A              
     e( 21 - 21) =      3.02619  eV     1   --> A              
     e( 22 - 22) =      3.07335  eV     1   --> A              
     e( 23 - 23) =      3.07851  eV     1   --> A              
     e( 24 - 24) =      3.22649  eV     1   --> A              
     e( 25 - 25) =      3.51685  eV     1   --> A              
     e( 26 - 26) =      4.07028  eV     1   --> A              
     e( 27 - 27) =      4.43589  eV     1   --> A              
     e( 28 - 28) =      4.70959  eV     1   --> A              
     e( 29 - 29) =      4.96537  eV     1   --> A              
     e( 30 - 30) =      5.34090  eV     1   --> A              
     e( 31 - 31) =      5.42993  eV     1   --> A              
     e( 32 - 32) =      5.46489  eV     1   --> A              
     e( 33 - 33) =      5.60830  eV     1   --> A              
     e( 34 - 34) =      6.00700  eV     1   --> A              
     e( 35 - 35) =      6.91521  eV     1   --> A              
     e( 36 - 36) =      7.19554  eV     1   --> A              

 **************************************************************************

 **************************************************************************

                    xk=(   0.00000,   0.16667,   0.33333  )

     Band symmetry, C_1 (1)     point group:

     e(  1 -  1) =    -10.50805  eV     1   --> A              
     e(  2 -  2) =    -10.07972  eV     1   --> A              
     e(  3 -  3) =     -9.90583  eV     1   --> A              
     e(  4 -  4) =     -9.87366  eV     1   --> A              
     e(  5 -  5) =      1.19436  eV     1   --> A              
     e(  6 -  6) =      1.38404  eV     1   --> A              
     e(  7 -  7) =      1.43530  eV     1   --> A              
     e(  8 -  8) =      1.47705  eV     1   --> A              
     e(  9 -  9) =      1.75395  eV     1   --> A              
     e( 10 - 10) =      1.76404  eV     1   --> A              
     e( 11 - 11) =      2.10424  eV     1   --> A              
     e( 12 - 12) =      2.17328  eV     1   --> A              
     e( 13 - 13) =      2.18057  eV     1   --> A              
     e( 14 - 14) =      2.27308  eV     1   --> A              
     e( 15 - 15) =      2.45856  eV     1   --> A              
     e( 16 - 16) =      2.61151  eV     1   --> A              
     e( 17 - 17) =      2.85155  eV     1   --> A              
     e( 18 - 18) =      2.88195  eV     1   --> A              
     e( 19 - 19) =      2.95115  eV     1   --> A              
     e( 20 - 20) =      2.98222  eV     1   --> A              
     e( 21 - 21) =      2.98535  eV     1   --> A              
     e( 22 - 22) =      3.06229  eV     1   --> A              
     e( 23 - 23) =      3.12320  eV     1   --> A              
     e( 24 - 24) =      3.31464  eV     1   --> A              
     e( 25 - 25) =      3.37636  eV     1   --> A              
     e( 26 - 26) =      3.91028  eV     1   --> A              
     e( 27 - 27) =      4.63758  eV     1   --> A              
     e( 28 - 28) =      4.66888  eV     1   --> A              
     e( 29 - 29) =      4.79380  eV     1   --> A              
     e( 30 - 30) =      5.48346  eV     1   --> A              
     e( 31 - 31) =      5.52617  eV     1   --> A              
     e( 32 - 32) =      5.59243  eV     1   --> A              
     e( 33 - 33) =      5.71059  eV     1   --> A              
     e( 34 - 34) =      5.89858  eV     1   --> A              
     e( 35 - 35) =      6.69416  eV     1   --> A              
     e( 36 - 36) =      7.02379  eV     1   --> A              

 **************************************************************************

 **************************************************************************

                    xk=(   0.00000,   0.16667,   0.41667  )

     Band symmetry, C_1 (1)     point group:

     e(  1 -  1) =    -10.40594  eV     1   --> A              
     e(  2 -  2) =    -10.18416  eV     1   --> A              
     e(  3 -  3) =     -9.89716  eV     1   --> A              
     e(  4 -  4) =     -9.88050  eV     1   --> A              
     e(  5 -  5) =      1.21740  eV     1   --> A              
     e(  6 -  6) =      1.31643  eV     1   --> A              
     e(  7 -  7) =      1.56913  eV     1   --> A              
     e(  8 -  8) =      1.58145  eV     1   --> A              
     e(  9 -  9) =      1.82714  eV     1   --> A              
     e( 10 - 10) =      1.83913  eV     1   --> A              
     e( 11 - 11) =      2.00132  eV     1   --> A              
     e( 12 - 12) =      2.05453  eV     1   --> A              
     e( 13 - 13) =      2.11049  eV     1   --> A              
     e( 14 - 14) =      2.18638  eV     1   --> A              
     e( 15 - 15) =      2.50144  eV     1   --> A              
     e( 16 - 16) =      2.61541  eV     1   --> A              
     e( 17 - 17) =      2.83581  eV     1   --> A              
     e( 18 - 18) =      2.85771  eV     1   --> A              
     e( 19 - 19) =      2.87350  eV     1   --> A              
     e( 20 - 20) =      2.93509  eV     1   --> A              
     e( 21 - 21) =      3.00339  eV     1   --> A              
     e( 22 - 22) =      3.04561  eV     1   --> A              
     e( 23 - 23) =      3.17430  eV     1   --> A              
     e( 24 - 24) =      3.25475  eV     1   --> A              
     e( 25 - 25) =      3.48610  eV     1   --> A              
     e( 26 - 26) =      3.76226  eV     1   --> A              
     e( 27 - 27) =      4.58885  eV     1   --> A              
     e( 28 - 28) =      4.65806  eV     1   --> A              
     e( 29 - 29) =      4.91352  eV     1   --> A              
     e( 30 - 30) =      5.43129  eV     1   --> A              
     e( 31 - 31) =      5.52434  eV     1   --> A              
     e( 32 - 32) =      5.55151  eV     1   --> A              
     e( 33 - 33) =      5.86920  eV     1   --> A              
     e( 34 - 34) =      6.20887  eV     1   --> A              
     e( 35 - 35) =      6.43582  eV     1   --> A              
     e( 36 - 36) =      6.79040  eV     1   --> A              

 **************************************************************************

 **************************************************************************

                    xk=(   0.00000,   0.16667,  -0.50000  )

     point group C_2  (2)   
     there are  2 classes
     the character table:

       E     C2   
A      1.00  1.00
B      1.00 -1.00

     the symmetry operations in each class and the name of the first element:

     E        1
                                                                 
     C2       2
                                                                 

     Band symmetry, C_2  (2)    point group:

     e(  1 -  2) =    -10.29548  eV     2   --> A              
     e(  1 -  2) =    -10.29548  eV     2   --> B              
     e(  3 -  4) =     -9.88850  eV     2   --> A              
     e(  3 -  4) =     -9.88850  eV     2   --> B              
     e(  5 -  6) =      1.25867  eV     2   --> A              
     e(  5 -  6) =      1.25867  eV     2   --> B              
     e(  7 -  8) =      1.63082  eV     2   --> A              
     e(  7 -  8) =      1.63082  eV     2   --> B              
     e(  9 - 10) =      1.90848  eV     2   --> A              
     e(  9 - 10) =      1.90848  eV     2   --> B              
     e( 11 - 12) =      1.93861  eV     2   --> A              
     e( 11 - 12) =      1.93861  eV     2   --> B              
     e( 13 - 14) =      2.11016  eV     2   --> A              
     e( 13 - 14) =      2.11016  eV     2   --> B              
     e( 15 - 16) =      2.56129  eV     2   --> A              
     e( 15 - 16) =      2.56129  eV     2   --> B              
     e( 17 - 18) =      2.83999  eV     2   --> A              
     e( 17 - 18) =      2.83999  eV     2   --> B              
     e( 19 - 20) =      2.88139  eV     2   --> A              
     e( 19 - 20) =      2.88139  eV     2   --> B              
     e( 21 - 22) =      3.02527  eV     2   --> A              
     e( 21 - 22) =      3.02527  eV     2   --> B              
     e( 23 - 24) =      3.21377  eV     2   --> A              
     e( 23 - 24) =      3.21377  eV     2   --> B              
     e( 25 - 26) =      3.62309  eV     2   --> A              
     e( 25 - 26) =      3.62309  eV     2   --> B              
     e( 27 - 28) =      4.58856  eV     2   --> A              
     e( 27 - 28) =      4.58856  eV     2   --> B              
     e( 29 - 30) =      5.16696  eV     2   --> A              
     e( 29 - 30) =      5.16696  eV     2   --> B              
     e( 31 - 32) =      5.54856  eV     2   --> A              
     e( 31 - 32) =      5.54856  eV     2   --> B              
     e( 33 - 34) =      6.15559  eV     2   --> A              
     e( 33 - 34) =      6.15559  eV     2   --> B              
     e( 35 - 36) =      6.51298  eV     2   --> A              
     e( 35 - 36) =      6.51298  eV     2   --> B              

 **************************************************************************

 **************************************************************************

                    xk=(   0.00000,   0.25000,   0.25000  )

     point group C_s (m)    
     there are  2 classes
     the character table:

       E     s    
A'     1.00  1.00
A''    1.00 -1.00

     the symmetry operations in each class and the name of the first element:

     E        1
                                                                 
     s        2
                                                                 

     Band symmetry, C_s (m)     point group:

     e(  1 -  1) =    -10.53348  eV     1   --> A'             
     e(  2 -  3) =     -9.97686  eV     2   --> A'             
     e(  2 -  3) =     -9.97686  eV     2   --> A''            
     e(  4 -  4) =     -9.87783  eV     1   --> A'             
     e(  5 -  6) =      1.29552  eV     2   --> A'             
     e(  5 -  6) =      1.29552  eV     2   --> A''            
     e(  7 -  7) =      1.42949  eV     1   --> A'             
     e(  8 -  8) =      1.44041  eV     1   --> A'             
     e(  9 -  9) =      1.71550  eV     1   --> A''            
     e( 10 - 10) =      1.73656  eV     1   --> A'             
     e( 11 - 12) =      2.13845  eV     2   --> A'             
     e( 11 - 12) =      2.13845  eV     2   --> A''            
     e( 13 - 13) =      2.28921  eV     1   --> A''            
     e( 14 - 15) =      2.32352  eV     2   --> A'             
     e( 14 - 15) =      2.32352  eV     2   --> A''            
     e( 16 - 16) =      2.65181  eV     1   --> A'             
     e( 17 - 17) =      2.90155  eV     1   --> A''            
     e( 18 - 19) =      2.93678  eV     2   --> A'             
     e( 18 - 19) =      2.93678  eV     2   --> A''            
     e( 20 - 20) =      2.96942  eV     1   --> A'             
     e( 21 - 21) =      3.01836  eV     1   --> A''            
     e( 22 - 23) =      3.07152  eV     2   --> A'             
     e( 22 - 23) =      3.07152  eV     2   --> A''            
     e( 24 - 24) =      3.15369  eV     1   --> A'             
     e( 25 - 25) =      3.36491  eV     1   --> A'             
     e( 26 - 27) =      4.25216  eV     2   --> A'             
     e( 26 - 27) =      4.25216  eV     2   --> A''            
     e( 28 - 28) =      4.68613  eV     1   --> A'             
     e( 29 - 30) =      5.17495  eV     2   --> A'             
     e( 29 - 30) =      5.17495  eV     2   --> A''            
     e( 31 - 31) =      5.63338  eV     1   --> A''            
     e( 32 - 33) =      5.69059  eV     2   --> A'             
     e( 32 - 33) =      5.69059  eV     2   --> A''            
     e( 34 - 34) =      5.71791  eV     1   --> A'             
     e( 35 - 35) =      6.73747  eV     1   --> A'             
     e( 36 - 36) =      7.18015  eV     1   --> A''            

 **************************************************************************

 **************************************************************************

                    xk=(   0.00000,   0.25000,   0.33333  )

     point group C_1 (1)    
     there are  1 classes
     the character table:

       E    
A      1.00

     the symmetry operations in each class and the name of the first element:

     E        1
                                                                 

     Band symmetry, C_1 (1)     point group:

     e(  1 -  1) =    -10.45284  eV     1   --> A              
     e(  2 -  2) =    -10.05906  eV     1   --> A              
     e(  3 -  3) =     -9.96080  eV     1   --> A              
     e(  4 -  4) =     -9.89074  eV     1   --> A              
     e(  5 -  5) =      1.29663  eV     1   --> A              
     e(  6 -  6) =      1.39582  eV     1   --> A              
     e(  7 -  7) =      1.43811  eV     1   --> A              
     e(  8 -  8) =      1.52970  eV     1   --> A              
     e(  9 -  9) =      1.76191  eV     1   --> A              
     e( 10 - 10) =      1.77450  eV     1   --> A              
     e( 11 - 11) =      2.03650  eV     1   --> A              
     e( 12 - 12) =      2.05781  eV     1   --> A              
     e( 13 - 13) =      2.18997  eV     1   --> A              
     e( 14 - 14) =      2.22433  eV     1   --> A              
     e( 15 - 15) =      2.35086  eV     1   --> A              
     e( 16 - 16) =      2.72488  eV     1   --> A              
     e( 17 - 17) =      2.85755  eV     1   --> A              
     e( 18 - 18) =      2.88849  eV     1   --> A              
     e( 19 - 19) =      2.89088  eV     1   --> A              
     e( 20 - 20) =      2.95647  eV     1   --> A              
     e( 21 - 21) =      2.98597  eV     1   --> A              
     e( 22 - 22) =      3.05143  eV     1   --> A              
     e( 23 - 23) =      3.06495  eV     1   --> A              
     e( 24 - 24) =      3.07603  eV     1   --> A              
     e( 25 - 25) =      3.44692  eV     1   --> A              
     e( 26 - 26) =      4.05765  eV     1   --> A              
     e( 27 - 27) =      4.45876  eV     1   --> A              
     e( 28 - 28) =      4.67355  eV     1   --> A              
     e( 29 - 29) =      4.99847  eV     1   --> A              
     e( 30 - 30) =      5.41885  eV     1   --> A              
     e( 31 - 31) =      5.43490  eV     1   --> A              
     e( 32 - 32) =      5.75433  eV     1   --> A              
     e( 33 - 33) =      5.76266  eV     1   --> A              
     e( 34 - 34) =      6.00138  eV     1   --> A              
     e( 35 - 35) =      6.50943  eV     1   --> A              
     e( 36 - 36) =      7.06934  eV     1   --> A              

 **************************************************************************

 **************************************************************************

                    xk=(   0.00000,   0.25000,   0.41667  )

     Band symmetry, C_1 (1)     point group:

     e(  1 -  1) =    -10.35849  eV     1   --> A              
     e(  2 -  2) =    -10.15458  eV     1   --> A              
     e(  3 -  3) =     -9.94275  eV     1   --> A              
     e(  4 -  4) =     -9.90648  eV     1   --> A              
     e(  5 -  5) =      1.30590  eV     1   --> A              
     e(  6 -  6) =      1.35836  eV     1   --> A              
     e(  7 -  7) =      1.58843  eV     1   --> A              
     e(  8 -  8) =      1.61754  eV     1   --> A              
     e(  9 -  9) =      1.81794  eV     1   --> A              
     e( 10 - 10) =      1.83999  eV     1   --> A              
     e( 11 - 11) =      1.94981  eV     1   --> A              
     e( 12 - 12) =      1.99503  eV     1   --> A              
     e( 13 - 13) =      2.05657  eV     1   --> A              
     e( 14 - 14) =      2.12778  eV     1   --> A              
     e( 15 - 15) =      2.39383  eV     1   --> A              
     e( 16 - 16) =      2.60793  eV     1   --> A              
     e( 17 - 17) =      2.82482  eV     1   --> A              
     e( 18 - 18) =      2.86765  eV     1   --> A              
     e( 19 - 19) =      2.87296  eV     1   --> A              
     e( 20 - 20) =      2.93910  eV     1   --> A              
     e( 21 - 21) =      3.00849  eV     1   --> A              
     e( 22 - 22) =      3.05142  eV     1   --> A              
     e( 23 - 23) =      3.06300  eV     1   --> A              
     e( 24 - 24) =      3.08234  eV     1   --> A              
     e( 25 - 25) =      3.56695  eV     1   --> A              
     e( 26 - 26) =      3.87324  eV     1   --> A              
     e( 27 - 27) =      4.68155  eV     1   --> A              
     e( 28 - 28) =      4.68560  eV     1   --> A              
     e( 29 - 29) =      4.84549  eV     1   --> A              
     e( 30 - 30) =      5.16795  eV     1   --> A              
     e( 31 - 31) =      5.68686  eV     1   --> A              
     e( 32 - 32) =      5.81414  eV     1   --> A              
     e( 33 - 33) =      5.81999  eV     1   --> A              
     e( 34 - 34) =      6.24726  eV     1   --> A              
     e( 35 - 35) =      6.32198  eV     1   --> A              
     e( 36 - 36) =      6.87712  eV     1   --> A              

 **************************************************************************

 **************************************************************************

                    xk=(   0.00000,   0.25000,  -0.50000  )

     point group C_2  (2)   
     there are  2 classes
     the character table:

       E     C2   
A      1.00  1.00
B      1.00 -1.00

     the symmetry operations in each class and the name of the first element:

     E        1
                                                                 
     C2       2
                                                                 

     Band symmetry, C_2  (2)    point group:

     e(  1 -  2) =    -10.25675  eV     2   --> A              
     e(  1 -  2) =    -10.25675  eV     2   --> B              
     e(  3 -  4) =     -9.92420  eV     2   --> A              
     e(  3 -  4) =     -9.92420  eV     2   --> B              
     e(  5 -  6) =      1.32656  eV     2   --> A              
     e(  5 -  6) =      1.32656  eV     2   --> B              
     e(  7 -  8) =      1.66333  eV     2   --> A              
     e(  7 -  8) =      1.66333  eV     2   --> B              
     e(  9 - 10) =      1.87767  eV     2   --> A              
     e(  9 - 10) =      1.87767  eV     2   --> B              
     e( 11 - 12) =      1.93759  eV     2   --> A              
     e( 11 - 12) =      1.93759  eV     2   --> B              
     e( 13 - 14) =      2.01585  eV     2   --> A              
     e( 13 - 14) =      2.01585  eV     2   --> B              
     e( 15 - 16) =      2.46841  eV     2   --> A              
     e( 15 - 16) =      2.46841  eV     2   --> B              
     e( 17 - 18) =      2.86356  eV     2   --> A              
     e( 17 - 18) =      2.86356  eV     2   --> B              
     e( 19 - 20) =      2.89147  eV     2   --> A              
     e( 19 - 20) =      2.89147  eV     2   --> B              
     e( 21 - 22) =      3.03162  eV     2   --> A              
     e( 21 - 22) =      3.03162  eV     2   --> B              
     e( 23 - 24) =      3.07735  eV     2   --> A              
     e( 23 - 24) =      3.07735  eV     2   --> B              
     e( 25 - 26) =      3.70910  eV     2   --> A              
     e( 25 - 26) =      3.70910  eV     2   --> B              
     e( 27 - 28) =      4.73927  eV     2   --> A              
     e( 27 - 28) =      4.73927  eV     2   --> B              
     e( 29 - 30) =      4.91758  eV     2   --> A              
     e( 29 - 30) =      4.91758  eV     2   --> B              
     e( 31 - 32) =      5.83649  eV     2   --> A              
     e( 31 - 32) =      5.83649  eV     2   --> B              
     e( 33 - 34) =      5.96772  eV     2   --> A              
     e( 33 - 34) =      5.96772  eV     2   --> B              
     e( 35 - 36) =      6.62160  eV     2   --> A              
     e( 35 - 36) =      6.62160  eV     2   --> B              

 **************************************************************************

 **************************************************************************

                    xk=(   0.00000,   0.33333,   0.33333  )

     point group C_s (m)    
     there are  2 classes
     the character table:

       E     s    
A'     1.00  1.00
A''    1.00 -1.00

     the symmetry operations in each class and the name of the first element:

     E        1
                                                                 
     s        2
                                                                 

     Band symmetry, C_s (m)     point group:

     e(  1 -  1) =    -10.38081  eV     1   --> A'             
     e(  2 -  3) =    -10.03264  eV     2   --> A'             
     e(  2 -  3) =    -10.03264  eV     2   --> A''            
     e(  4 -  4) =     -9.91355  eV     1   --> A'             
     e(  5 -  5) =      1.40713  eV     1   --> A'             
     e(  6 -  7) =      1.43728  eV     2   --> A'             
     e(  6 -  7) =      1.43728  eV     2   --> A''            
     e(  8 -  8) =      1.59417  eV     1   --> A'             
     e(  9 -  9) =      1.78964  eV     1   --> A''            
     e( 10 - 10) =      1.78996  eV     1   --> A'             
     e( 11 - 12) =      1.96322  eV     2   --> A'             
     e( 11 - 12) =      1.96322  eV     2   --> A''            
     e( 13 - 13) =      2.17668  eV     1   --> A''            
     e( 14 - 15) =      2.20314  eV     2   --> A'             
     e( 14 - 15) =      2.20314  eV     2   --> A''            
     e( 16 - 16) =      2.59388  eV     1   --> A'             
     e( 17 - 17) =      2.83681  eV     1   --> A'             
     e( 18 - 18) =      2.88759  eV     1   --> A''            
     e( 19 - 20) =      2.91760  eV     2   --> A'             
     e( 19 - 20) =      2.91760  eV     2   --> A''            
     e( 21 - 21) =      2.97535  eV     1   --> A''            
     e( 22 - 22) =      3.00037  eV     1   --> A'             
     e( 23 - 24) =      3.06837  eV     2   --> A'             
     e( 23 - 24) =      3.06837  eV     2   --> A''            
     e( 25 - 25) =      3.55046  eV     1   --> A'             
     e( 26 - 27) =      4.23754  eV     2   --> A'             
     e( 26 - 27) =      4.23754  eV     2   --> A''            
     e( 28 - 28) =      4.71662  eV     1   --> A'             
     e( 29 - 29) =      5.16180  eV     1   --> A'             
     e( 30 - 31) =      5.22572  eV     2   --> A'             
     e( 30 - 31) =      5.22572  eV     2   --> A''            
     e( 32 - 32) =      5.94362  eV     1   --> A''            
     e( 33 - 34) =      6.08362  eV     2   --> A'             
     e( 33 - 34) =      6.08362  eV     2   --> A''            
     e( 35 - 35) =      6.27668  eV     1   --> A'             
     e( 36 - 36) =      7.02502  eV     1   --> A''            

 **************************************************************************

 **************************************************************************

                    xk=(   0.00000,   0.33333,   0.41667  )

     point group C_1 (1)    
     there are  1 classes
     the character table:

       E    
A      1.00

     the symmetry operations in each class and the name of the first element:

     E        1
                                                                 

     Band symmetry, C_1 (1)     point group:

     e(  1 -  1) =    -10.29680  eV     1   --> A              
     e(  2 -  2) =    -10.11650  eV     1   --> A              
     e(  3 -  3) =    -10.00261  eV     1   --> A              
     e(  4 -  4) =     -9.94095  eV     1   --> A              
     e(  5 -  5) =      1.41650  eV     1   --> A              
     e(  6 -  6) =      1.43210  eV     1   --> A              
     e(  7 -  7) =      1.60203  eV     1   --> A              
     e(  8 -  8) =      1.66074  eV     1   --> A              
     e(  9 -  9) =      1.81254  eV     1   --> A              
     e( 10 - 10) =      1.84689  eV     1   --> A              
     e( 11 - 11) =      1.89324  eV     1   --> A              
     e( 12 - 12) =      1.90248  eV     1   --> A              
     e( 13 - 13) =      2.05835  eV     1   --> A              
     e( 14 - 14) =      2.09043  eV     1   --> A              
     e( 15 - 15) =      2.22211  eV     1   --> A              
     e( 16 - 16) =      2.35843  eV     1   --> A              
     e( 17 - 17) =      2.88266  eV     1   --> A              
     e( 18 - 18) =      2.89192  eV     1   --> A              
     e( 19 - 19) =      2.90999  eV     1   --> A              
     e( 20 - 20) =      2.92769  eV     1   --> A              
     e( 21 - 21) =      2.98388  eV     1   --> A              
     e( 22 - 22) =      3.02236  eV     1   --> A              
     e( 23 - 23) =      3.06053  eV     1   --> A              
     e( 24 - 24) =      3.06267  eV     1   --> A              
     e( 25 - 25) =      3.67875  eV     1   --> A              
     e( 26 - 26) =      4.02566  eV     1   --> A              
     e( 27 - 27) =      4.44123  eV     1   --> A              
     e( 28 - 28) =      4.78532  eV     1   --> A              
     e( 29 - 29) =      4.90386  eV     1   --> A              
     e( 30 - 30) =      5.04307  eV     1   --> A              
     e( 31 - 31) =      5.47547  eV     1   --> A              
     e( 32 - 32) =      6.01495  eV     1   --> A              
     e( 33 - 33) =      6.06960  eV     1   --> A              
     e( 34 - 34) =      6.13030  eV     1   --> A              
     e( 35 - 35) =      6.39918  eV     1   --> A              
     e( 36 - 36) =      6.89015  eV     1   --> A              

 **************************************************************************

 **************************************************************************

                    xk=(   0.00000,   0.33333,  -0.50000  )

     point group C_2  (2)   
     there are  2 classes
     the character table:

       E     C2   
A      1.00  1.00
B      1.00 -1.00

     the symmetry operations in each class and the name of the first element:

     E        1
                                                                 
     C2       2
                                                                 

     Band symmetry, C_2  (2)    point group:

     e(  1 -  2) =    -10.20662  eV     2   --> A              
     e(  1 -  2) =    -10.20662  eV     2   --> B              
     e(  3 -  4) =     -9.97129  eV     2   --> A              
     e(  3 -  4) =     -9.97129  eV     2   --> B              
     e(  5 -  6) =      1.42466  eV     2   --> A              
     e(  5 -  6) =      1.42466  eV     2   --> B              
     e(  7 -  8) =      1.69943  eV     2   --> A              
     e(  7 -  8) =      1.69943  eV     2   --> B              
     e(  9 - 10) =      1.84525  eV     2   --> A              
     e(  9 - 10) =      1.84525  eV     2   --> B              
     e( 11 - 12) =      1.93718  eV     2   --> A              
     e( 11 - 12) =      1.93718  eV     2   --> B              
     e( 13 - 14) =      1.93832  eV     2   --> A              
     e( 13 - 14) =      1.93832  eV     2   --> B              
     e( 15 - 16) =      2.25729  eV     2   --> A              
     e( 15 - 16) =      2.25729  eV     2   --> B              
     e( 17 - 18) =      2.88192  eV     2   --> A              
     e( 17 - 18) =      2.88192  eV     2   --> B              
     e( 19 - 20) =      2.92667  eV     2   --> A              
     e( 19 - 20) =      2.92667  eV     2   --> B              
     e( 21 - 22) =      3.03265  eV     2   --> A              
     e( 21 - 22) =      3.03265  eV     2   --> B              
     e( 23 - 24) =      3.04450  eV     2   --> A              
     e( 23 - 24) =      3.04450  eV     2   --> B              
     e( 25 - 26) =      3.83700  eV     2   --> A              
     e( 25 - 26) =      3.83700  eV     2   --> B              
     e( 27 - 28) =      4.66377  eV     2   --> A              
     e( 27 - 28) =      4.66377  eV     2   --> B              
     e( 29 - 30) =      4.89298  eV     2   --> A              
     e( 29 - 30) =      4.89298  eV     2   --> B              
     e( 31 - 32) =      5.74253  eV     2   --> A              
     e( 31 - 32) =      5.74253  eV     2   --> B              
     e( 33 - 34) =      6.12934  eV     2   --> A              
     e( 33 - 34) =      6.12934  eV     2   --> B              
     e( 35 - 36) =      6.67591  eV     2   --> A              
     e( 35 - 36) =      6.67591  eV     2   --> B              

 **************************************************************************

 **************************************************************************

                    xk=(   0.00000,   0.41667,   0.41667  )

     point group C_s (m)    
     there are  2 classes
     the character table:

       E     s    
A'     1.00  1.00
A''    1.00 -1.00

     the symmetry operations in each class and the name of the first element:

     E        1
                                                                 
     s        2
                                                                 

     Band symmetry, C_s (m)     point group:

     e(  1 -  1) =    -10.22522  eV     1   --> A'             
     e(  2 -  3) =    -10.07285  eV     2   --> A'             
     e(  2 -  3) =    -10.07285  eV     2   --> A''            
     e(  4 -  4) =     -9.98192  eV     1   --> A'             
     e(  5 -  5) =      1.48562  eV     1   --> A'             
     e(  6 -  7) =      1.59412  eV     2   --> A'             
     e(  6 -  7) =      1.59412  eV     2   --> A''            
     e(  8 -  8) =      1.70581  eV     1   --> A'             
     e(  9 -  9) =      1.81106  eV     1   --> A'             
     e( 10 - 11) =      1.84180  eV     2   --> A'             
     e( 10 - 11) =      1.84180  eV     2   --> A''            
     e( 12 - 12) =      1.87442  eV     1   --> A''            
     e( 13 - 14) =      2.05989  eV     2   --> A'             
     e( 13 - 14) =      2.05989  eV     2   --> A''            
     e( 15 - 15) =      2.06791  eV     1   --> A''            
     e( 16 - 16) =      2.08702  eV     1   --> A'             
     e( 17 - 17) =      2.88721  eV     1   --> A''            
     e( 18 - 19) =      2.90670  eV     2   --> A'             
     e( 18 - 19) =      2.90670  eV     2   --> A''            
     e( 20 - 20) =      2.93503  eV     1   --> A''            
     e( 21 - 21) =      3.00491  eV     1   --> A'             
     e( 22 - 22) =      3.04182  eV     1   --> A'             
     e( 23 - 24) =      3.06524  eV     2   --> A'             
     e( 23 - 24) =      3.06524  eV     2   --> A''            
     e( 25 - 25) =      3.82326  eV     1   --> A'             
     e( 26 - 27) =      4.21089  eV     2   --> A'             
     e( 26 - 27) =      4.21089  eV     2   --> A''            
     e( 28 - 28) =      4.65332  eV     1   --> A'             
     e( 29 - 29) =      4.91007  eV     1   --> A'             
     e( 30 - 31) =      5.26251  eV     2   --> A'             
     e( 30 - 31) =      5.26251  eV     2   --> A''            
     e( 32 - 32) =      5.76079  eV     1   --> A'             
     e( 33 - 33) =      6.26106  eV     1   --> A''            
     e( 34 - 35) =      6.42228  eV     2   --> A'             
     e( 34 - 35) =      6.42228  eV     2   --> A''            
     e( 36 - 36) =      6.81680  eV     1   --> A''            

 **************************************************************************

 **************************************************************************

                    xk=(   0.00000,   0.41667,  -0.50000  )

     point group C_2  (2)   
     there are  2 classes
     the character table:

       E     C2   
A      1.00  1.00
B      1.00 -1.00

     the symmetry operations in each class and the name of the first element:

     E        1
                                                                 
     C2       2
                                                                 

     Band symmetry, C_2  (2)    point group:

     e(  1 -  2) =    -10.14879  eV     2   --> A              
     e(  1 -  2) =    -10.14879  eV     2   --> B              
     e(  3 -  4) =    -10.02690  eV     2   --> A              
     e(  3 -  4) =    -10.02690  eV     2   --> B              
     e(  5 -  6) =      1.55197  eV     2   --> A              
     e(  5 -  6) =      1.55197  eV     2   --> B              
     e(  7 -  8) =      1.72911  eV     2   --> A              
     e(  7 -  8) =      1.72911  eV     2   --> B              
     e(  9 - 10) =      1.81588  eV     2   --> A              
     e(  9 - 10) =      1.81588  eV     2   --> B              
     e( 11 - 12) =      1.86203  eV     2   --> A              
     e( 11 - 12) =      1.86203  eV     2   --> B              
     e( 13 - 14) =      1.94151  eV     2   --> A              
     e( 13 - 14) =      1.94151  eV     2   --> B              
     e( 15 - 16) =      2.06284  eV     2   --> A              
     e( 15 - 16) =      2.06284  eV     2   --> B              
     e( 17 - 18) =      2.89314  eV     2   --> A              
     e( 17 - 18) =      2.89314  eV     2   --> B              
     e( 19 - 20) =      2.91848  eV     2   --> A              
     e( 19 - 20) =      2.91848  eV     2   --> B              
     e( 21 - 22) =      3.05052  eV     2   --> A              
     e( 21 - 22) =      3.05052  eV     2   --> B              
[...]
     e( 19 - 19) =      3.00962  eV     1   --> A'             
     e( 20 - 21) =      3.02187  eV     2   --> A'             
     e( 20 - 21) =      3.02187  eV     2   --> A''            
     e( 22 - 22) =      3.04366  eV     1   --> A''            
     e( 23 - 24) =      3.08603  eV     2   --> A'             
     e( 23 - 24) =      3.08603  eV     2   --> A''            
     e( 25 - 26) =      3.31108  eV     2   --> A'             
     e( 25 - 26) =      3.31108  eV     2   --> A''            
     e( 27 - 27) =      3.59192  eV     1   --> A'             
     e( 28 - 28) =      4.00000  eV     1   --> A'             
     e( 29 - 30) =      5.93236  eV     2   --> A'             
     e( 29 - 30) =      5.93236  eV     2   --> A''            
     e( 31 - 31) =      6.23147  eV     1   --> A'             
     e( 32 - 33) =      6.29872  eV     2   --> A'             
     e( 32 - 33) =      6.29872  eV     2   --> A''            
     e( 34 - 34) =      6.35155  eV     1   --> A''            
     e( 35 - 35) =      6.63440  eV     1   --> A''            
     e( 36 - 36) =      6.69568  eV     1   --> A'             

 **************************************************************************

 **************************************************************************

                    xk=(   0.33333,   0.33333,  -0.50000  )

     Band symmetry, C_s (m)     point group:

     e(  1 -  2) =    -10.13849  eV     2   -->   2 A'             
     e(  3 -  4) =    -10.02041  eV     2   --> A'             
     e(  3 -  4) =    -10.02041  eV     2   --> A''            
     e(  5 -  6) =      1.51892  eV     2   -->   2 A'             
     e(  7 -  8) =      1.73717  eV     2   --> A'             
     e(  7 -  8) =      1.73717  eV     2   --> A''            
     e(  9 - 10) =      1.85641  eV     2   -->   2 A'             
     e( 11 - 12) =      1.86291  eV     2   --> A'             
     e( 11 - 12) =      1.86291  eV     2   --> A''            
     e( 13 - 14) =      1.88595  eV     2   -->   2 A''            
     e( 15 - 16) =      2.01562  eV     2   --> A'             
     e( 15 - 16) =      2.01562  eV     2   --> A''            
     e( 17 - 18) =      2.98277  eV     2   -->   2 A'             
     e( 19 - 20) =      3.00871  eV     2   --> A'             
     e( 19 - 20) =      3.00871  eV     2   --> A''            
     e( 21 - 22) =      3.03185  eV     2   -->   2 A''            
     e( 23 - 24) =      3.09619  eV     2   --> A'             
     e( 23 - 24) =      3.09619  eV     2   --> A''            
     e( 25 - 26) =      3.27624  eV     2   --> A'             
     e( 25 - 26) =      3.27624  eV     2   --> A''            
     e( 27 - 28) =      3.78256  eV     2   -->   2 A'             
     e( 29 - 30) =      5.94285  eV     2   --> A'             
     e( 29 - 30) =      5.94285  eV     2   --> A''            
     e( 31 - 32) =      6.33084  eV     2   --> A'             
     e( 31 - 32) =      6.33084  eV     2   --> A''            
     e( 33 - 34) =      6.49369  eV     2   -->   2 A''            
     e( 35 - 36) =      6.51061  eV     2   -->   2 A'             

 **************************************************************************

 **************************************************************************

                    xk=(   0.33333,   0.41667,   0.41667  )

     Band symmetry, C_s (m)     point group:

     e(  1 -  1) =    -10.15473  eV     1   --> A'             
     e(  2 -  3) =    -10.06222  eV     2   --> A'             
     e(  2 -  3) =    -10.06222  eV     2   --> A''            
     e(  4 -  4) =    -10.03262  eV     1   --> A'             
     e(  5 -  5) =      1.51613  eV     1   --> A'             
     e(  6 -  7) =      1.64755  eV     2   --> A'             
     e(  6 -  7) =      1.64755  eV     2   --> A''            
     e(  8 -  8) =      1.71565  eV     1   --> A'             
     e(  9 -  9) =      1.84916  eV     1   --> A'             
     e( 10 - 10) =      1.85130  eV     1   --> A''            
     e( 11 - 12) =      1.87123  eV     2   --> A'             
     e( 11 - 12) =      1.87123  eV     2   --> A''            
     e( 13 - 13) =      1.90382  eV     1   --> A'             
     e( 14 - 15) =      1.93177  eV     2   --> A'             
     e( 14 - 15) =      1.93177  eV     2   --> A''            
     e( 16 - 16) =      1.93792  eV     1   --> A''            
     e( 17 - 17) =      2.98830  eV     1   --> A''            
     e( 18 - 19) =      3.01798  eV     2   --> A'             
     e( 18 - 19) =      3.01798  eV     2   --> A''            
     e( 20 - 20) =      3.02212  eV     1   --> A'             
     e( 21 - 21) =      3.02499  eV     1   --> A''            
     e( 22 - 23) =      3.05373  eV     2   --> A'             
     e( 22 - 23) =      3.05373  eV     2   --> A''            
     e( 24 - 24) =      3.07369  eV     1   --> A'             
     e( 25 - 25) =      3.27601  eV     1   --> A'             
     e( 26 - 27) =      3.42423  eV     2   --> A'             
     e( 26 - 27) =      3.42423  eV     2   --> A''            
     e( 28 - 28) =      3.77128  eV     1   --> A'             
     e( 29 - 29) =      6.06738  eV     1   --> A'             
     e( 30 - 31) =      6.21597  eV     2   --> A'             
     e( 30 - 31) =      6.21597  eV     2   --> A''            
     e( 32 - 32) =      6.39442  eV     1   --> A''            
     e( 33 - 34) =      6.42926  eV     2   --> A'             
     e( 33 - 34) =      6.42926  eV     2   --> A''            
     e( 35 - 35) =      6.54790  eV     1   --> A'             
     e( 36 - 36) =      6.67653  eV     1   --> A''            

 **************************************************************************

 **************************************************************************

                    xk=(   0.33333,   0.41667,  -0.50000  )

     point group C_1 (1)    
     there are  1 classes
     the character table:

       E    
A      1.00

     the symmetry operations in each class and the name of the first element:

     E        1
                                                                 

     Band symmetry, C_1 (1)     point group:

     e(  1 -  2) =    -10.10773  eV     2   -->   2 A              
     e(  3 -  4) =    -10.04654  eV     2   -->   2 A              
     e(  5 -  6) =      1.58141  eV     2   -->   2 A              
     e(  7 -  8) =      1.71408  eV     2   -->   2 A              
     e(  9 - 12) =      1.85389  eV     4   -->   4 A              
     e( 13 - 14) =      1.88155  eV     2   -->   2 A              
     e( 15 - 16) =      1.93277  eV     2   -->   2 A              
     e( 17 - 18) =      2.99830  eV     2   -->   2 A              
     e( 19 - 20) =      3.01600  eV     2   -->   2 A              
     e( 21 - 22) =      3.04073  eV     2   -->   2 A              
     e( 23 - 24) =      3.06706  eV     2   -->   2 A              
     e( 25 - 26) =      3.31988  eV     2   -->   2 A              
     e( 27 - 28) =      3.57949  eV     2   -->   2 A              
     e( 29 - 30) =      6.15417  eV     2   -->   2 A              
     e( 31 - 32) =      6.41033  eV     2   -->   2 A              
     e( 33 - 34) =      6.45008  eV     2   -->   2 A              
     e( 35 - 36) =      6.57788  eV     2   -->   2 A              

 **************************************************************************

 **************************************************************************

                    xk=(   0.33333,  -0.50000,  -0.50000  )

     point group C_2v (mm2) 
     there are  4 classes
     the character table:

       E     C2    s_v   s_v' 
A_1    1.00  1.00  1.00  1.00
A_2    1.00  1.00 -1.00 -1.00
B_1    1.00 -1.00  1.00 -1.00
B_2    1.00 -1.00 -1.00  1.00

     the symmetry operations in each class and the name of the first element:

     E        1
                                                                 
     C2       2
                                                                 
     s_v      3
                                                                 
     s_v'     4
                                                                 

     Band symmetry, C_2v (mm2)  point group:

     e(  1 -  4) =    -10.07629  eV     4   -->   2 A_1  D_1  S_1  
     e(  1 -  4) =    -10.07629  eV     4   --> B_1  D_3  S_3  
     e(  1 -  4) =    -10.07629  eV     4   --> B_2  D_4  S_4  
     e(  5 -  8) =      1.65401  eV     4   -->   2 A_1  D_1  S_1  
     e(  5 -  8) =      1.65401  eV     4   --> B_1  D_3  S_3  
     e(  5 -  8) =      1.65401  eV     4   --> B_2  D_4  S_4  
     e(  9 - 12) =      1.85380  eV     4   -->   2 A_1  D_1  S_1  
     e(  9 - 12) =      1.85380  eV     4   --> B_1  D_3  S_3  
     e(  9 - 12) =      1.85380  eV     4   --> B_2  D_4  S_4  
     e( 13 - 16) =      1.88988  eV     4   -->   2 A_2  D_2  S_2  
     e( 13 - 16) =      1.88988  eV     4   --> B_1  D_3  S_3  
     e( 13 - 16) =      1.88988  eV     4   --> B_2  D_4  S_4  
     e( 17 - 20) =      3.00575  eV     4   -->   2 A_2  D_2  S_2  
     e( 17 - 20) =      3.00575  eV     4   --> B_1  D_3  S_3  
     e( 17 - 20) =      3.00575  eV     4   --> B_2  D_4  S_4  
     e( 21 - 24) =      3.05415  eV     4   -->   2 A_1  D_1  S_1  
     e( 21 - 24) =      3.05415  eV     4   --> B_1  D_3  S_3  
     e( 21 - 24) =      3.05415  eV     4   --> B_2  D_4  S_4  
     e( 25 - 28) =      3.42523  eV     4   -->   2 A_1  D_1  S_1  
     e( 25 - 28) =      3.42523  eV     4   --> B_1  D_3  S_3  
     e( 25 - 28) =      3.42523  eV     4   --> B_2  D_4  S_4  
     e( 29 - 32) =      6.29925  eV     4   -->   2 A_1  D_1  S_1  
     e( 29 - 32) =      6.29925  eV     4   --> B_1  D_3  S_3  
     e( 29 - 32) =      6.29925  eV     4   --> B_2  D_4  S_4  
     e( 33 - 36) =      6.55167  eV     4   -->   2 A_2  D_2  S_2  
     e( 33 - 36) =      6.55167  eV     4   --> B_1  D_3  S_3  
     e( 33 - 36) =      6.55167  eV     4   --> B_2  D_4  S_4  

 **************************************************************************

 **************************************************************************

                    xk=(   0.41667,   0.41667,   0.41667  )

     point group C_3v (3m)  
     there are  3 classes
     the character table:

       E     2C3   3s_v 
A_1    1.00  1.00  1.00
A_2    1.00  1.00 -1.00
E      2.00 -1.00  0.00

     the symmetry operations in each class and the name of the first element:

     E        1
                                                                 
     2C3      2    3
                                                                 
     3s_v     4    5    6
                                                                 

     Band symmetry, C_3v (3m)   point group:

     e(  1 -  1) =    -10.12289  eV     1   --> A_1  L_1       
     e(  2 -  4) =    -10.05960  eV     3   --> A_1  L_1       
     e(  2 -  4) =    -10.05960  eV     3   --> E    L_3       
     e(  5 -  5) =      1.55505  eV     1   --> A_1  L_1       
     e(  6 -  8) =      1.67348  eV     3   --> A_1  L_1       
     e(  6 -  8) =      1.67348  eV     3   --> E    L_3       
     e(  9 - 10) =      1.85612  eV     2   --> E    L_3       
     e( 11 - 13) =      1.86952  eV     3   --> A_1  L_1       
     e( 11 - 13) =      1.86952  eV     3   --> E    L_3       
     e( 14 - 16) =      1.90005  eV     3   --> A_2  L_2       
     e( 14 - 16) =      1.90005  eV     3   --> E    L_3       
     e( 17 - 18) =      3.01769  eV     2   --> E    L_3       
     e( 19 - 21) =      3.03797  eV     3   --> A_2  L_2       
     e( 19 - 21) =      3.03797  eV     3   --> E    L_3       
     e( 22 - 24) =      3.04555  eV     3   --> A_1  L_1       
     e( 22 - 24) =      3.04555  eV     3   --> E    L_3       
     e( 25 - 27) =      3.31243  eV     3   --> A_1  L_1       
     e( 25 - 27) =      3.31243  eV     3   --> E    L_3       
     e( 28 - 28) =      3.57001  eV     1   --> A_1  L_1       
     e( 29 - 31) =      6.35057  eV     3   --> A_1  L_1       
     e( 29 - 31) =      6.35057  eV     3   --> E    L_3       
     e( 32 - 34) =      6.46145  eV     3   --> A_2  L_2       
     e( 32 - 34) =      6.46145  eV     3   --> E    L_3       
     e( 35 - 36) =      6.60800  eV     2   --> E    L_3       

 **************************************************************************

 **************************************************************************

                    xk=(   0.41667,   0.41667,  -0.50000  )

     point group C_s (m)    
     there are  2 classes
     the character table:

       E     s    
A'     1.00  1.00
A''    1.00 -1.00

     the symmetry operations in each class and the name of the first element:

     E        1
                                                                 
     s        2
                                                                 

     Band symmetry, C_s (m)     point group:

     e(  1 -  2) =    -10.09037  eV     2   -->   2 A'             
     e(  3 -  4) =    -10.05865  eV     2   --> A'             
     e(  3 -  4) =    -10.05865  eV     2   --> A''            
     e(  5 -  6) =      1.61114  eV     2   -->   2 A'             
     e(  7 -  8) =      1.68633  eV     2   --> A'             
     e(  7 -  8) =      1.68633  eV     2   --> A''            
     e(  9 - 10) =      1.85932  eV     2   --> A'             
     e(  9 - 10) =      1.85932  eV     2   --> A''            
     e( 11 - 12) =      1.86007  eV     2   -->   2 A'             
     e( 13 - 14) =      1.87215  eV     2   -->   2 A''            
     e( 15 - 16) =      1.89470  eV     2   --> A'             
     e( 15 - 16) =      1.89470  eV     2   --> A''            
     e( 17 - 18) =      3.02305  eV     2   -->   2 A'             
     e( 19 - 20) =      3.03178  eV     2   --> A'             
     e( 19 - 20) =      3.03178  eV     2   --> A''            
     e( 21 - 22) =      3.03526  eV     2   -->   2 A''            
     e( 23 - 24) =      3.05251  eV     2   --> A'             
     e( 23 - 24) =      3.05251  eV     2   --> A''            
     e( 25 - 26) =      3.27729  eV     2   --> A'             
     e( 25 - 26) =      3.27729  eV     2   --> A''            
     e( 27 - 28) =      3.41669  eV     2   -->   2 A'             
     e( 29 - 30) =      6.37549  eV     2   --> A'             
     e( 29 - 30) =      6.37549  eV     2   --> A''            
     e( 31 - 32) =      6.49488  eV     2   --> A'             
     e( 31 - 32) =      6.49488  eV     2   --> A''            
     e( 33 - 34) =      6.53444  eV     2   -->   2 A''            
     e( 35 - 36) =      6.53934  eV     2   -->   2 A'             

 **************************************************************************

 **************************************************************************

                    xk=(   0.41667,  -0.50000,  -0.50000  )

     point group C_2v (mm2) 
     there are  4 classes
     the character table:

       E     C2    s_v   s_v' 
A_1    1.00  1.00  1.00  1.00
A_2    1.00  1.00 -1.00 -1.00
B_1    1.00 -1.00  1.00 -1.00
B_2    1.00 -1.00 -1.00  1.00

     the symmetry operations in each class and the name of the first element:

     E        1
                                                                 
     C2       2
                                                                 
     s_v      3
                                                                 
     s_v'     4
                                                                 

     Band symmetry, C_2v (mm2)  point group:

     e(  1 -  4) =    -10.07355  eV     4   -->   2 A_1  D_1  S_1  
     e(  1 -  4) =    -10.07355  eV     4   --> B_1  D_3  S_3  
     e(  1 -  4) =    -10.07355  eV     4   --> B_2  D_4  S_4  
     e(  5 -  8) =      1.64888  eV     4   -->   2 A_1  D_1  S_1  
     e(  5 -  8) =      1.64888  eV     4   --> B_1  D_3  S_3  
     e(  5 -  8) =      1.64888  eV     4   --> B_2  D_4  S_4  
     e(  9 - 12) =      1.86360  eV     4   -->   2 A_1  D_1  S_1  
     e(  9 - 12) =      1.86360  eV     4   --> B_1  D_3  S_3  
     e(  9 - 12) =      1.86360  eV     4   --> B_2  D_4  S_4  
     e( 13 - 16) =      1.87303  eV     4   -->   2 A_2  D_2  S_2  
     e( 13 - 16) =      1.87303  eV     4   --> B_1  D_3  S_3  
     e( 13 - 16) =      1.87303  eV     4   --> B_2  D_4  S_4  
     e( 17 - 20) =      3.02848  eV     4   -->   2 A_2  D_2  S_2  
     e( 17 - 20) =      3.02848  eV     4   --> B_1  D_3  S_3  
     e( 17 - 20) =      3.02848  eV     4   --> B_2  D_4  S_4  
     e( 21 - 24) =      3.04330  eV     4   -->   2 A_1  D_1  S_1  
     e( 21 - 24) =      3.04330  eV     4   --> B_1  D_3  S_3  
     e( 21 - 24) =      3.04330  eV     4   --> B_2  D_4  S_4  
     e( 25 - 28) =      3.31547  eV     4   -->   2 A_1  D_1  S_1  
     e( 25 - 28) =      3.31547  eV     4   --> B_1  D_3  S_3  
     e( 25 - 28) =      3.31547  eV     4   --> B_2  D_4  S_4  
     e( 29 - 32) =      6.48398  eV     4   -->   2 A_1  D_1  S_1  
     e( 29 - 32) =      6.48398  eV     4   --> B_1  D_3  S_3  
     e( 29 - 32) =      6.48398  eV     4   --> B_2  D_4  S_4  
     e( 33 - 36) =      6.54995  eV     4   -->   2 A_2  D_2  S_2  
     e( 33 - 36) =      6.54995  eV     4   --> B_1  D_3  S_3  
     e( 33 - 36) =      6.54995  eV     4   --> B_2  D_4  S_4  

 **************************************************************************

 **************************************************************************

                    xk=(  -0.50000,  -0.50000,  -0.50000  )

     point group T_d (-43m) 
     there are  5 classes
     the character table:

       E     8C3   3C2   6S4   6s_d 
A_1    1.00  1.00  1.00  1.00  1.00
A_2    1.00  1.00  1.00 -1.00 -1.00
E      2.00 -1.00  2.00  0.00  0.00
T_1    3.00  0.00 -1.00  1.00 -1.00
T_2    3.00  0.00 -1.00 -1.00  1.00

     the symmetry operations in each class and the name of the first element:

     E        1
                                                                 
     8C3      5    7    8    6   12    9   10   11
                                                                 
     3C2      2    3    4
                                                                 
     6S4     15   16   20   19   23   24
                                                                 
     6s_d    13   14   17   18   21   22
                                                                 

     Band symmetry, T_d (-43m)  point group:

     e(  1 -  4) =    -10.07253  eV     4   --> A_1  G_1  P_1  
     e(  1 -  4) =    -10.07253  eV     4   --> T_2  G_15 P_4  
     e(  5 -  8) =      1.64727  eV     4   --> A_1  G_1  P_1  
     e(  5 -  8) =      1.64727  eV     4   --> T_2  G_15 P_4  
     e(  9 - 16) =      1.86717  eV     8   --> E    G_12 P_3  
     e(  9 - 16) =      1.86717  eV     8   --> T_1  G_25 P_5  
     e(  9 - 16) =      1.86717  eV     8   --> T_2  G_15 P_4  
     e( 17 - 24) =      3.03693  eV     8   --> E    G_12 P_3  
     e( 17 - 24) =      3.03693  eV     8   --> T_1  G_25 P_5  
     e( 17 - 24) =      3.03693  eV     8   --> T_2  G_15 P_4  
     e( 25 - 28) =      3.28088  eV     4   --> A_1  G_1  P_1  
     e( 25 - 28) =      3.28088  eV     4   --> T_2  G_15 P_4  
     e( 29 - 36) =      6.54938  eV     8   --> E    G_12 P_3  
     e( 29 - 36) =      6.54938  eV     8   --> T_1  G_25 P_5  
     e( 29 - 36) =      6.54938  eV     8   --> T_2  G_15 P_4  

 **************************************************************************

     BANDS        :     20.86s CPU     23.82s WALL


   This run was terminated on:  19:21:44   8Sep2024            

=------------------------------------------------------------------------------=
   JOB DONE.
=------------------------------------------------------------------------------=
