
     Program PWSCF v.6.7MaX starts on  6Sep2024 at 15:13: 2 

     This program is part of the open-source Quantum ESPRESSO suite
     for quantum simulation of materials; please cite
         "P. Giannozzi et al., J. Phys.:Condens. Matter 21 395502 (2009);
         "P. Giannozzi et al., J. Phys.:Condens. Matter 29 465901 (2017);
          URL http://www.quantum-espresso.org", 
     in publications or presentations arising from this work. More details at
     http://www.quantum-espresso.org/quote

     Parallel version (MPI), running on     4 processors

     MPI processes distributed on     1 nodes
     R & G space division:  proc/nbgrp/npool/nimage =       4
     Reading input from WSe2_NSCF.inp

     Current dimensions of program PWSCF are:
     Max number of different atomic species (ntypx) = 10
     Max number of k-points (npk) =  40000
     Max angular momentum in pseudopotentials (lmaxx) =  3
     Message from routine input:
     WARNING: "startingwfc" set to atomic+random may spoil restart
     file W.pbe-spn-kjpaw_psl.1.0.0.UPF: wavefunction(s)  6S 5P 5D renormalized
     file Se.pbe-dn-kjpaw_psl.1.0.0.UPF: wavefunction(s)  4S 4P 3D renormalized

     IMPORTANT: XC functional enforced from input :
     Exchange-correlation= PBE
                           (   1   4   3   4   0   0   0)
     Any further DFT definition will be discarded
     Please, verify this is what you really want


     Subspace diagonalization in iterative solution of the eigenvalue problem:
     one sub-group per band group will be used
     scalapack distributed-memory algorithm (size of sub-group:  2*  2 procs)


     Parallelization info
     --------------------
     sticks:   dense  smooth     PW     G-vecs:    dense   smooth      PW
     Min         321     148     42                42597    13420    2115
     Max         322     149     43                42620    13435    2122
     Sum        1285     595    169               170417    53709    8473



     bravais-lattice index     =            4
     lattice parameter (alat)  =       6.2873  a.u.
     unit-cell volume          =     974.8449 (a.u.)^3
     number of atoms/cell      =            6
     number of atomic types    =            2
     number of electrons       =        92.00
     number of Kohn-Sham states=           46
     kinetic-energy cutoff     =      55.0000  Ry
     charge density cutoff     =     475.0000  Ry
     Exchange-correlation= PBE
                           (   1   4   3   4   0   0   0)

     celldm(1)=   6.287251  celldm(2)=   0.000000  celldm(3)=   4.529210
     celldm(4)=   0.000000  celldm(5)=   0.000000  celldm(6)=   0.000000

     crystal axes: (cart. coord. in units of alat)
               a(1) = (   1.000000   0.000000   0.000000 )  
               a(2) = (  -0.500000   0.866025   0.000000 )  
               a(3) = (   0.000000   0.000000   4.529210 )  

     reciprocal axes: (cart. coord. in units 2 pi/alat)
               b(1) = (  1.000000  0.577350 -0.000000 )  
               b(2) = (  0.000000  1.154701  0.000000 )  
               b(3) = (  0.000000 -0.000000  0.220789 )  


     PseudoPot. # 1 for W  read from file:
     /home/alessandro_rotondi/q-e/pseudo/W.pbe-spn-kjpaw_psl.1.0.0.UPF
     MD5 check sum: 03c3df5b60893f488392c7401945500a
     Pseudo is Projector augmented-wave + core cor, Zval = 14.0
     Generated using &quot;atomic&quot; code by A. Dal Corso  v.6.2.2
     Shape of augmentation charge: PSQ
     Using radial grid of 1273 points,  6 beta functions with: 
                l(1) =   0
                l(2) =   0
                l(3) =   1
                l(4) =   1
                l(5) =   2
                l(6) =   2
     Q(r) pseudized with 0 coefficients 


     PseudoPot. # 2 for Se read from file:
     /home/alessandro_rotondi/q-e/pseudo/Se.pbe-dn-kjpaw_psl.1.0.0.UPF
     MD5 check sum: ac240dd2bae32a30e0bf3a38df9c8785
     Pseudo is Projector augmented-wave + core cor, Zval = 16.0
     Generated using &quot;atomic&quot; code by A. Dal Corso  v.6.3
     Shape of augmentation charge: PSQ
     Using radial grid of 1211 points,  6 beta functions with: 
                l(1) =   0
                l(2) =   0
                l(3) =   1
                l(4) =   1
                l(5) =   2
                l(6) =   2
     Q(r) pseudized with 0 coefficients 


     atomic species   valence    mass     pseudopotential
        W             14.00   183.84000     W ( 1.00)
        Se            16.00    78.96000     Se( 1.00)

     24 Sym. Ops., with inversion, found (12 have fractional translation)


                                    s                        frac. trans.

      isym =  1     identity                                     

 cryst.   s( 1) = (     1          0          0      )
                  (     0          1          0      )
                  (     0          0          1      )

 cart.    s( 1) = (  1.0000000  0.0000000  0.0000000 )
                  (  0.0000000  1.0000000  0.0000000 )
                  (  0.0000000  0.0000000  1.0000000 )


      isym =  2     180 deg rotation - cart. axis [0,0,1]        

 cryst.   s( 2) = (    -1          0          0      )    f =(  0.0000000 )
                  (     0         -1          0      )       (  0.0000000 )
                  (     0          0          1      )       (  0.4999990 )

 cart.    s( 2) = ( -1.0000000  0.0000000  0.0000000 )    f =(  0.0000000 )
                  (  0.0000000 -1.0000000  0.0000000 )       (  0.0000000 )
                  (  0.0000000  0.0000000  1.0000000 )       (  2.2646007 )


      isym =  3     180 deg rotation - cart. axis [0,1,0]        

 cryst.   s( 3) = (    -1          0          0      )    f =(  0.0000010 )
                  (     1          1          0      )       (  0.0000000 )
                  (     0          0         -1      )       ( -0.4999980 )

 cart.    s( 3) = ( -1.0000000  0.0000000  0.0000000 )    f =(  0.0000010 )
                  (  0.0000000  1.0000000  0.0000000 )       (  0.0000000 )
                  (  0.0000000  0.0000000 -1.0000000 )       ( -2.2645961 )


      isym =  4     180 deg rotation - cart. axis [1,0,0]        

 cryst.   s( 4) = (     1          0          0      )
                  (    -1         -1          0      )
                  (     0          0         -1      )

 cart.    s( 4) = (  1.0000000  0.0000000  0.0000000 )
                  (  0.0000000 -1.0000000  0.0000000 )
                  (  0.0000000  0.0000000 -1.0000000 )


      isym =  5      60 deg rotation - cryst. axis [0,0,1]       

 cryst.   s( 5) = (     1          1          0      )    f =(  0.0000010 )
                  (    -1          0          0      )       (  0.0000000 )
                  (     0          0          1      )       (  0.4999990 )

 cart.    s( 5) = (  0.5000000 -0.8660254  0.0000000 )    f =(  0.0000010 )
                  (  0.8660254  0.5000000  0.0000000 )       (  0.0000000 )
                  (  0.0000000  0.0000000  1.0000000 )       (  2.2646007 )


      isym =  6      60 deg rotation - cryst. axis [0,0,-1]      

 cryst.   s( 6) = (     0         -1          0      )    f =(  0.0000000 )
                  (     1          1          0      )       ( -0.0000010 )
                  (     0          0          1      )       (  0.4999990 )

 cart.    s( 6) = (  0.5000000  0.8660254  0.0000000 )    f =(  0.0000005 )
                  ( -0.8660254  0.5000000  0.0000000 )       ( -0.0000009 )
                  (  0.0000000  0.0000000  1.0000000 )       (  2.2646007 )


      isym =  7     120 deg rotation - cryst. axis [0,0,1]       

 cryst.   s( 7) = (     0          1          0      )
                  (    -1         -1          0      )
                  (     0          0          1      )

 cart.    s( 7) = ( -0.5000000 -0.8660254  0.0000000 )
                  (  0.8660254 -0.5000000  0.0000000 )
                  (  0.0000000  0.0000000  1.0000000 )


      isym =  8     120 deg rotation - cryst. axis [0,0,-1]      

 cryst.   s( 8) = (    -1         -1          0      )
                  (     1          0          0      )
                  (     0          0          1      )

 cart.    s( 8) = ( -0.5000000  0.8660254  0.0000000 )
                  ( -0.8660254 -0.5000000  0.0000000 )
                  (  0.0000000  0.0000000  1.0000000 )


      isym =  9     180 deg rotation - cryst. axis [1,-1,0]      

 cryst.   s( 9) = (     0         -1          0      )    f =(  0.0000000 )
                  (    -1          0          0      )       (  0.0000000 )
                  (     0          0         -1      )       ( -0.4999980 )

 cart.    s( 9) = (  0.5000000 -0.8660254  0.0000000 )    f =(  0.0000000 )
                  ( -0.8660254 -0.5000000  0.0000000 )       (  0.0000000 )
                  (  0.0000000  0.0000000 -1.0000000 )       ( -2.2645961 )


      isym = 10     180 deg rotation - cryst. axis [2,1,0]       

 cryst.   s(10) = (     1          1          0      )    f =(  0.0000000 )
                  (     0         -1          0      )       ( -0.0000010 )
                  (     0          0         -1      )       ( -0.4999980 )

 cart.    s(10) = (  0.5000000  0.8660254  0.0000000 )    f =(  0.0000005 )
                  (  0.8660254 -0.5000000  0.0000000 )       ( -0.0000009 )
                  (  0.0000000  0.0000000 -1.0000000 )       ( -2.2645961 )


      isym = 11     180 deg rotation - cryst. axis [0,1,0]       

 cryst.   s(11) = (    -1         -1          0      )
                  (     0          1          0      )
                  (     0          0         -1      )

 cart.    s(11) = ( -0.5000000 -0.8660254  0.0000000 )
                  ( -0.8660254  0.5000000  0.0000000 )
                  (  0.0000000  0.0000000 -1.0000000 )


      isym = 12     180 deg rotation - cryst. axis [1,1,0]       

 cryst.   s(12) = (     0          1          0      )
                  (     1          0          0      )
                  (     0          0         -1      )

 cart.    s(12) = ( -0.5000000  0.8660254  0.0000000 )
                  (  0.8660254  0.5000000  0.0000000 )
                  (  0.0000000  0.0000000 -1.0000000 )


      isym = 13     inversion                                    

 cryst.   s(13) = (    -1          0          0      )
                  (     0         -1          0      )
                  (     0          0         -1      )

 cart.    s(13) = ( -1.0000000  0.0000000  0.0000000 )
                  (  0.0000000 -1.0000000  0.0000000 )
                  (  0.0000000  0.0000000 -1.0000000 )


      isym = 14     inv. 180 deg rotation - cart. axis [0,0,1]   

 cryst.   s(14) = (     1          0          0      )    f =(  0.0000000 )
                  (     0          1          0      )       (  0.0000000 )
                  (     0          0         -1      )       ( -0.4999980 )

 cart.    s(14) = (  1.0000000  0.0000000  0.0000000 )    f =(  0.0000000 )
                  (  0.0000000  1.0000000  0.0000000 )       (  0.0000000 )
                  (  0.0000000  0.0000000 -1.0000000 )       ( -2.2645961 )


      isym = 15     inv. 180 deg rotation - cart. axis [0,1,0]   

 cryst.   s(15) = (     1          0          0      )    f =(  0.0000010 )
                  (    -1         -1          0      )       (  0.0000000 )
                  (     0          0          1      )       (  0.4999990 )

 cart.    s(15) = (  1.0000000  0.0000000  0.0000000 )    f =(  0.0000010 )
                  (  0.0000000 -1.0000000  0.0000000 )       (  0.0000000 )
                  (  0.0000000  0.0000000  1.0000000 )       (  2.2646007 )


      isym = 16     inv. 180 deg rotation - cart. axis [1,0,0]   

 cryst.   s(16) = (    -1          0          0      )
                  (     1          1          0      )
                  (     0          0          1      )

 cart.    s(16) = ( -1.0000000  0.0000000  0.0000000 )
                  (  0.0000000  1.0000000  0.0000000 )
                  (  0.0000000  0.0000000  1.0000000 )


      isym = 17     inv.  60 deg rotation - cryst. axis [0,0,1]  

 cryst.   s(17) = (    -1         -1          0      )    f =(  0.0000010 )
                  (     1          0          0      )       (  0.0000000 )
                  (     0          0         -1      )       ( -0.4999980 )

 cart.    s(17) = ( -0.5000000  0.8660254  0.0000000 )    f =(  0.0000010 )
                  ( -0.8660254 -0.5000000  0.0000000 )       (  0.0000000 )
                  (  0.0000000  0.0000000 -1.0000000 )       ( -2.2645961 )


      isym = 18     inv.  60 deg rotation - cryst. axis [0,0,-1] 

 cryst.   s(18) = (     0          1          0      )    f =(  0.0000000 )
                  (    -1         -1          0      )       ( -0.0000010 )
                  (     0          0         -1      )       ( -0.4999980 )

 cart.    s(18) = ( -0.5000000 -0.8660254  0.0000000 )    f =(  0.0000005 )
                  (  0.8660254 -0.5000000  0.0000000 )       ( -0.0000009 )
                  (  0.0000000  0.0000000 -1.0000000 )       ( -2.2645961 )


      isym = 19     inv. 120 deg rotation - cryst. axis [0,0,1]  

 cryst.   s(19) = (     0         -1          0      )
                  (     1          1          0      )
                  (     0          0         -1      )

 cart.    s(19) = (  0.5000000  0.8660254  0.0000000 )
                  ( -0.8660254  0.5000000  0.0000000 )
                  (  0.0000000  0.0000000 -1.0000000 )


      isym = 20     inv. 120 deg rotation - cryst. axis [0,0,-1] 

 cryst.   s(20) = (     1          1          0      )
                  (    -1          0          0      )
                  (     0          0         -1      )

 cart.    s(20) = (  0.5000000 -0.8660254  0.0000000 )
                  (  0.8660254  0.5000000  0.0000000 )
                  (  0.0000000  0.0000000 -1.0000000 )


      isym = 21     inv. 180 deg rotation - cryst. axis [1,-1,0] 

 cryst.   s(21) = (     0          1          0      )    f =(  0.0000000 )
                  (     1          0          0      )       (  0.0000000 )
                  (     0          0          1      )       (  0.4999990 )

 cart.    s(21) = ( -0.5000000  0.8660254  0.0000000 )    f =( -0.0000000 )
                  (  0.8660254  0.5000000  0.0000000 )       (  0.0000000 )
                  (  0.0000000  0.0000000  1.0000000 )       (  2.2646007 )


      isym = 22     inv. 180 deg rotation - cryst. axis [2,1,0]  

 cryst.   s(22) = (    -1         -1          0      )    f =(  0.0000000 )
                  (     0          1          0      )       ( -0.0000010 )
                  (     0          0          1      )       (  0.4999990 )

 cart.    s(22) = ( -0.5000000 -0.8660254  0.0000000 )    f =(  0.0000005 )
                  ( -0.8660254  0.5000000  0.0000000 )       ( -0.0000009 )
                  (  0.0000000  0.0000000  1.0000000 )       (  2.2646007 )


      isym = 23     inv. 180 deg rotation - cryst. axis [0,1,0]  

 cryst.   s(23) = (     1          1          0      )
                  (     0         -1          0      )
                  (     0          0          1      )

 cart.    s(23) = (  0.5000000  0.8660254  0.0000000 )
                  (  0.8660254 -0.5000000  0.0000000 )
                  (  0.0000000  0.0000000  1.0000000 )


      isym = 24     inv. 180 deg rotation - cryst. axis [1,1,0]  

 cryst.   s(24) = (     0         -1          0      )
                  (    -1          0          0      )
                  (     0          0          1      )

 cart.    s(24) = (  0.5000000 -0.8660254  0.0000000 )
                  ( -0.8660254 -0.5000000  0.0000000 )
                  (  0.0000000  0.0000000  1.0000000 )


     point group D_6h(6/mmm)
     there are 12 classes
     the character table:

       E     2C6   2C3   C2    3C2'  3C2'' i     2S3   2S6   s_h   3s_d  3s_v 
A_1g   1.00  1.00  1.00  1.00  1.00  1.00  1.00  1.00  1.00  1.00  1.00  1.00
A_2g   1.00  1.00  1.00  1.00 -1.00 -1.00  1.00  1.00  1.00  1.00 -1.00 -1.00
B_1g   1.00 -1.00  1.00 -1.00  1.00 -1.00  1.00 -1.00  1.00 -1.00  1.00 -1.00
B_2g   1.00 -1.00  1.00 -1.00 -1.00  1.00  1.00 -1.00  1.00 -1.00 -1.00  1.00
E_1g   2.00  1.00 -1.00 -2.00  0.00  0.00  2.00  1.00 -1.00 -2.00  0.00  0.00
E_2g   2.00 -1.00 -1.00  2.00  0.00  0.00  2.00 -1.00 -1.00  2.00  0.00  0.00
A_1u   1.00  1.00  1.00  1.00  1.00  1.00 -1.00 -1.00 -1.00 -1.00 -1.00 -1.00
A_2u   1.00  1.00  1.00  1.00 -1.00 -1.00 -1.00 -1.00 -1.00 -1.00  1.00  1.00
B_1u   1.00 -1.00  1.00 -1.00  1.00 -1.00 -1.00  1.00 -1.00  1.00 -1.00  1.00
B_2u   1.00 -1.00  1.00 -1.00 -1.00  1.00 -1.00  1.00 -1.00  1.00  1.00 -1.00
E_1u   2.00  1.00 -1.00 -2.00  0.00  0.00 -2.00 -1.00  1.00  2.00  0.00  0.00
E_2u   2.00 -1.00 -1.00  2.00  0.00  0.00 -2.00  1.00  1.00 -2.00  0.00  0.00

     the symmetry operations in each class and the name of the first element:

     E        1
          identity                                               
     2C6      5    6
           60 deg rotation - cryst. axis [0,0,1]                 
     2C3      7    8
          120 deg rotation - cryst. axis [0,0,1]                 
     C2       2
          180 deg rotation - cart. axis [0,0,1]                  
     3C2'     4   12   11
          180 deg rotation - cart. axis [1,0,0]                  
     3C2''    3    9   10
          180 deg rotation - cart. axis [0,1,0]                  
     i       13
          inversion                                              
     2S3     17   18
          inv.  60 deg rotation - cryst. axis [0,0,1]            
     2S6     19   20
          inv. 120 deg rotation - cryst. axis [0,0,1]            
     s_h     14
          inv. 180 deg rotation - cart. axis [0,0,1]             
     3s_d    16   24   23
          inv. 180 deg rotation - cart. axis [1,0,0]             
     3s_v    15   21   22
          inv. 180 deg rotation - cart. axis [0,1,0]             

   Cartesian axes

     site n.     atom                  positions (alat units)
         1           W   tau(   1) = (  -0.0000005   0.5773506   1.1322981  )
         2           W   tau(   2) = (   0.5000005   0.2886748   3.3968987  )
         3           Se  tau(   3) = (   0.5000005   0.2886748   1.6285991  )
         4           Se  tau(   4) = (  -0.0000005   0.5773506   3.8931953  )
         5           Se  tau(   5) = (   0.5000005   0.2886748   0.6360015  )
         6           Se  tau(   6) = (  -0.0000005   0.5773506   2.9005977  )

   Crystallographic axes

     site n.     atom                  positions (cryst. coord.)
         1           W   tau(   1) = (  0.3333330  0.6666670  0.2499990  )
         2           W   tau(   2) = (  0.6666670  0.3333330  0.7499980  )
         3           Se  tau(   3) = (  0.6666670  0.3333330  0.3595768  )
         4           Se  tau(   4) = (  0.3333330  0.6666670  0.8595748  )
         5           Se  tau(   5) = (  0.6666670  0.3333330  0.1404222  )
         6           Se  tau(   6) = (  0.3333330  0.6666670  0.6404202  )

     number of k points=    50
                       cart. coord. in units 2pi/alat
        k(    1) = (   0.0000000   0.0000000   0.0000000), wk =   0.0039062
        k(    2) = (   0.0000000   0.0000000   0.0275986), wk =   0.0078125
        k(    3) = (   0.0000000   0.0000000   0.0551973), wk =   0.0078125
        k(    4) = (   0.0000000   0.0000000   0.0827959), wk =   0.0078125
        k(    5) = (   0.0000000   0.0000000  -0.1103945), wk =   0.0039062
        k(    6) = (   0.0000000   0.1443376   0.0000000), wk =   0.0234375
        k(    7) = (   0.0000000   0.1443376   0.0275986), wk =   0.0468750
        k(    8) = (   0.0000000   0.1443376   0.0551973), wk =   0.0468750
        k(    9) = (   0.0000000   0.1443376   0.0827959), wk =   0.0468750
        k(   10) = (   0.0000000   0.1443376  -0.1103945), wk =   0.0234375
        k(   11) = (   0.0000000   0.2886751   0.0000000), wk =   0.0234375
        k(   12) = (   0.0000000   0.2886751   0.0275986), wk =   0.0468750
        k(   13) = (   0.0000000   0.2886751   0.0551973), wk =   0.0468750
        k(   14) = (   0.0000000   0.2886751   0.0827959), wk =   0.0468750
        k(   15) = (   0.0000000   0.2886751  -0.1103945), wk =   0.0234375
        k(   16) = (   0.0000000   0.4330127   0.0000000), wk =   0.0234375
        k(   17) = (   0.0000000   0.4330127   0.0275986), wk =   0.0468750
        k(   18) = (   0.0000000   0.4330127   0.0551973), wk =   0.0468750
        k(   19) = (   0.0000000   0.4330127   0.0827959), wk =   0.0468750
        k(   20) = (   0.0000000   0.4330127  -0.1103945), wk =   0.0234375
        k(   21) = (   0.0000000  -0.5773503   0.0000000), wk =   0.0117188
        k(   22) = (   0.0000000  -0.5773503   0.0275986), wk =   0.0234375
        k(   23) = (   0.0000000  -0.5773503   0.0551973), wk =   0.0234375
        k(   24) = (   0.0000000  -0.5773503   0.0827959), wk =   0.0234375
        k(   25) = (   0.0000000  -0.5773503  -0.1103945), wk =   0.0117188
        k(   26) = (   0.1250000   0.2165064   0.0000000), wk =   0.0234375
        k(   27) = (   0.1250000   0.2165064   0.0275986), wk =   0.0468750
        k(   28) = (   0.1250000   0.2165064   0.0551973), wk =   0.0468750
        k(   29) = (   0.1250000   0.2165064   0.0827959), wk =   0.0468750
        k(   30) = (   0.1250000   0.2165064  -0.1103945), wk =   0.0234375
        k(   31) = (   0.1250000   0.3608439   0.0000000), wk =   0.0468750
        k(   32) = (   0.1250000   0.3608439   0.0275986), wk =   0.0937500
        k(   33) = (   0.1250000   0.3608439   0.0551973), wk =   0.0937500
        k(   34) = (   0.1250000   0.3608439   0.0827959), wk =   0.0937500
        k(   35) = (   0.1250000   0.3608439  -0.1103945), wk =   0.0468750
        k(   36) = (   0.1250000   0.5051815   0.0000000), wk =   0.0468750
        k(   37) = (   0.1250000   0.5051815   0.0275986), wk =   0.0937500
        k(   38) = (   0.1250000   0.5051815   0.0551973), wk =   0.0937500
        k(   39) = (   0.1250000   0.5051815   0.0827959), wk =   0.0937500
        k(   40) = (   0.1250000   0.5051815  -0.1103945), wk =   0.0468750
        k(   41) = (   0.2500000   0.4330127   0.0000000), wk =   0.0234375
        k(   42) = (   0.2500000   0.4330127   0.0275986), wk =   0.0468750
        k(   43) = (   0.2500000   0.4330127   0.0551973), wk =   0.0468750
        k(   44) = (   0.2500000   0.4330127   0.0827959), wk =   0.0468750
        k(   45) = (   0.2500000   0.4330127  -0.1103945), wk =   0.0234375
        k(   46) = (   0.2500000   0.5773503   0.0000000), wk =   0.0234375
        k(   47) = (   0.2500000   0.5773503   0.0275986), wk =   0.0468750
        k(   48) = (   0.2500000   0.5773503   0.0551973), wk =   0.0468750
        k(   49) = (   0.2500000   0.5773503   0.0827959), wk =   0.0468750
        k(   50) = (   0.2500000   0.5773503  -0.1103945), wk =   0.0234375

                       cryst. coord.
        k(    1) = (   0.0000000   0.0000000   0.0000000), wk =   0.0039062
        k(    2) = (   0.0000000   0.0000000   0.1250000), wk =   0.0078125
        k(    3) = (   0.0000000   0.0000000   0.2500000), wk =   0.0078125
        k(    4) = (   0.0000000   0.0000000   0.3750000), wk =   0.0078125
        k(    5) = (   0.0000000   0.0000000  -0.5000000), wk =   0.0039062
        k(    6) = (   0.0000000   0.1250000   0.0000000), wk =   0.0234375
        k(    7) = (   0.0000000   0.1250000   0.1250000), wk =   0.0468750
        k(    8) = (   0.0000000   0.1250000   0.2500000), wk =   0.0468750
        k(    9) = (   0.0000000   0.1250000   0.3750000), wk =   0.0468750
        k(   10) = (   0.0000000   0.1250000  -0.5000000), wk =   0.0234375
        k(   11) = (   0.0000000   0.2500000   0.0000000), wk =   0.0234375
        k(   12) = (   0.0000000   0.2500000   0.1250000), wk =   0.0468750
        k(   13) = (   0.0000000   0.2500000   0.2500000), wk =   0.0468750
        k(   14) = (   0.0000000   0.2500000   0.3750000), wk =   0.0468750
        k(   15) = (   0.0000000   0.2500000  -0.5000000), wk =   0.0234375
        k(   16) = (   0.0000000   0.3750000   0.0000000), wk =   0.0234375
        k(   17) = (   0.0000000   0.3750000   0.1250000), wk =   0.0468750
        k(   18) = (   0.0000000   0.3750000   0.2500000), wk =   0.0468750
        k(   19) = (   0.0000000   0.3750000   0.3750000), wk =   0.0468750
        k(   20) = (   0.0000000   0.3750000  -0.5000000), wk =   0.0234375
        k(   21) = (   0.0000000  -0.5000000   0.0000000), wk =   0.0117188
        k(   22) = (   0.0000000  -0.5000000   0.1250000), wk =   0.0234375
        k(   23) = (   0.0000000  -0.5000000   0.2500000), wk =   0.0234375
        k(   24) = (   0.0000000  -0.5000000   0.3750000), wk =   0.0234375
        k(   25) = (   0.0000000  -0.5000000  -0.5000000), wk =   0.0117188
        k(   26) = (   0.1250000   0.1250000   0.0000000), wk =   0.0234375
        k(   27) = (   0.1250000   0.1250000   0.1250000), wk =   0.0468750
        k(   28) = (   0.1250000   0.1250000   0.2500000), wk =   0.0468750
        k(   29) = (   0.1250000   0.1250000   0.3750000), wk =   0.0468750
        k(   30) = (   0.1250000   0.1250000  -0.5000000), wk =   0.0234375
        k(   31) = (   0.1250000   0.2500000   0.0000000), wk =   0.0468750
        k(   32) = (   0.1250000   0.2500000   0.1250000), wk =   0.0937500
        k(   33) = (   0.1250000   0.2500000   0.2500000), wk =   0.0937500
        k(   34) = (   0.1250000   0.2500000   0.3750000), wk =   0.0937500
        k(   35) = (   0.1250000   0.2500000  -0.5000000), wk =   0.0468750
        k(   36) = (   0.1250000   0.3750000   0.0000000), wk =   0.0468750
        k(   37) = (   0.1250000   0.3750000   0.1250000), wk =   0.0937500
        k(   38) = (   0.1250000   0.3750000   0.2500000), wk =   0.0937500
        k(   39) = (   0.1250000   0.3750000   0.3750000), wk =   0.0937500
        k(   40) = (   0.1250000   0.3750000  -0.5000000), wk =   0.0468750
        k(   41) = (   0.2500000   0.2500000   0.0000000), wk =   0.0234375
        k(   42) = (   0.2500000   0.2500000   0.1250000), wk =   0.0468750
        k(   43) = (   0.2500000   0.2500000   0.2500000), wk =   0.0468750
        k(   44) = (   0.2500000   0.2500000   0.3750000), wk =   0.0468750
        k(   45) = (   0.2500000   0.2500000  -0.5000000), wk =   0.0234375
        k(   46) = (   0.2500000   0.3750000   0.0000000), wk =   0.0234375
        k(   47) = (   0.2500000   0.3750000   0.1250000), wk =   0.0468750
        k(   48) = (   0.2500000   0.3750000   0.2500000), wk =   0.0468750
        k(   49) = (   0.2500000   0.3750000   0.3750000), wk =   0.0468750
        k(   50) = (   0.2500000   0.3750000  -0.5000000), wk =   0.0234375

     Dense  grid:   170417 G-vectors     FFT dimensions: (  45,  45, 200)

     Smooth grid:    53709 G-vectors     FFT dimensions: (  30,  30, 144)

     Dynamical RAM for                 wfc:       1.18 MB

     Dynamical RAM for     wfc (w. buffer):       1.18 MB

     Dynamical RAM for           str. fact:       1.30 MB

     Dynamical RAM for           local pot:       0.00 MB

     Dynamical RAM for          nlocal pot:       2.77 MB

     Dynamical RAM for                qrad:       3.50 MB

     Dynamical RAM for          rho,v,vnew:       8.53 MB

     Dynamical RAM for           G-vectors:       2.54 MB

     Dynamical RAM for          h,s,v(r/c):       0.10 MB

     Dynamical RAM for          <psi|beta>:       0.08 MB

     Dynamical RAM for                 psi:       2.36 MB

     Dynamical RAM for                hpsi:       2.36 MB

     Dynamical RAM for                spsi:       2.36 MB

     Dynamical RAM for      wfcinit/wfcrot:       3.26 MB

     Dynamical RAM for           addusdens:     123.50 MB

     Estimated static dynamical RAM per process >      25.63 MB

     Estimated max dynamical RAM per process >     149.12 MB

     Estimated total dynamical RAM >     596.49 MB

     Atomic positions and unit cell read from directory:
     ./tmp/WSe2.save/


     The potential is recalculated from file :
     ./tmp/WSe2.save/charge-density


     negative rho (up, down):  1.125E-03 0.000E+00
     Starting wfcs are   62 randomized atomic wfcs
     Checking if some PAW data can be deallocated... 
       PAW data deallocated on    3 nodes for type:  1
       PAW data deallocated on    1 nodes for type:  2

     Band Structure Calculation
     Davidson diagonalization with overlap

     Computing kpt #:     1  of    50
     total cpu time spent up to now is        9.6 secs

     Computing kpt #:     2  of    50
     total cpu time spent up to now is       16.2 secs

     Computing kpt #:     3  of    50
     total cpu time spent up to now is       23.1 secs

     Computing kpt #:     4  of    50
     total cpu time spent up to now is       30.2 secs

     Computing kpt #:     5  of    50
     total cpu time spent up to now is       37.2 secs

     Computing kpt #:     6  of    50
     total cpu time spent up to now is       44.3 secs

     Computing kpt #:     7  of    50
     total cpu time spent up to now is       51.5 secs

     Computing kpt #:     8  of    50
     total cpu time spent up to now is       58.6 secs

     Computing kpt #:     9  of    50
     total cpu time spent up to now is       65.7 secs

     Computing kpt #:    10  of    50
     total cpu time spent up to now is       72.8 secs

     Computing kpt #:    11  of    50
     total cpu time spent up to now is       79.9 secs

     Computing kpt #:    12  of    50
     total cpu time spent up to now is       87.1 secs

     Computing kpt #:    13  of    50
     total cpu time spent up to now is       94.1 secs

     Computing kpt #:    14  of    50
     total cpu time spent up to now is      101.3 secs

     Computing kpt #:    15  of    50
     total cpu time spent up to now is      108.5 secs

     Computing kpt #:    16  of    50
     total cpu time spent up to now is      115.8 secs

     Computing kpt #:    17  of    50
     total cpu time spent up to now is      123.1 secs

     Computing kpt #:    18  of    50
     total cpu time spent up to now is      130.3 secs

     Computing kpt #:    19  of    50
     total cpu time spent up to now is      137.3 secs

     Computing kpt #:    20  of    50
     total cpu time spent up to now is      144.5 secs

     Computing kpt #:    21  of    50
     total cpu time spent up to now is      151.7 secs

     Computing kpt #:    22  of    50
     total cpu time spent up to now is      158.8 secs

     Computing kpt #:    23  of    50
     total cpu time spent up to now is      166.0 secs

     Computing kpt #:    24  of    50
     total cpu time spent up to now is      173.1 secs

     Computing kpt #:    25  of    50
     total cpu time spent up to now is      180.1 secs

     Computing kpt #:    26  of    50
     total cpu time spent up to now is      187.4 secs

     Computing kpt #:    27  of    50
     total cpu time spent up to now is      194.6 secs

     Computing kpt #:    28  of    50
     total cpu time spent up to now is      201.7 secs

     Computing kpt #:    29  of    50
     total cpu time spent up to now is      208.9 secs

     Computing kpt #:    30  of    50
     total cpu time spent up to now is      216.0 secs

     Computing kpt #:    31  of    50
     total cpu time spent up to now is      223.2 secs

     Computing kpt #:    32  of    50
     total cpu time spent up to now is      230.3 secs

     Computing kpt #:    33  of    50
     total cpu time spent up to now is      237.6 secs

     Computing kpt #:    34  of    50
     total cpu time spent up to now is      244.8 secs

     Computing kpt #:    35  of    50
     total cpu time spent up to now is      251.9 secs

     Computing kpt #:    36  of    50
     total cpu time spent up to now is      259.0 secs

     Computing kpt #:    37  of    50
     total cpu time spent up to now is      265.8 secs

     Computing kpt #:    38  of    50
     total cpu time spent up to now is      272.9 secs

     Computing kpt #:    39  of    50
     total cpu time spent up to now is      280.0 secs

     Computing kpt #:    40  of    50
     total cpu time spent up to now is      287.0 secs

     Computing kpt #:    41  of    50
     total cpu time spent up to now is      293.9 secs

     Computing kpt #:    42  of    50
     total cpu time spent up to now is      300.9 secs

     Computing kpt #:    43  of    50
     total cpu time spent up to now is      312.0 secs

     Computing kpt #:    44  of    50
     total cpu time spent up to now is      323.7 secs

     Computing kpt #:    45  of    50
     total cpu time spent up to now is      334.0 secs

     Computing kpt #:    46  of    50
     total cpu time spent up to now is      342.6 secs

     Computing kpt #:    47  of    50
     total cpu time spent up to now is      352.2 secs

     Computing kpt #:    48  of    50
     total cpu time spent up to now is      361.5 secs

     Computing kpt #:    49  of    50
     total cpu time spent up to now is      370.4 secs

     Computing kpt #:    50  of    50
     total cpu time spent up to now is      381.2 secs

     ethr =  1.09E-12,  avg # of iterations = 32.6

     total cpu time spent up to now is      381.2 secs

     End of band structure calculation

          k = 0.0000 0.0000 0.0000 (  6733 PWs)   bands (ev):

   -64.6097 -64.6095 -38.0461 -38.0461 -38.0422 -38.0422 -38.0395 -38.0395
   -38.0359 -38.0359 -38.0106 -38.0106 -38.0068 -38.0068 -38.0039 -38.0039
   -38.0004 -38.0004 -37.9954 -37.9919 -37.9883 -37.9850 -28.8253 -28.8251
   -28.7318 -28.7318 -28.7316 -28.7316  -5.2917  -5.2661  -3.9877  -3.9396
     3.2196   3.4570   7.0056   7.0056   7.0069   7.0070   7.0215   7.8504
     8.1345   8.1346   8.1388   8.1390   9.0356   9.5106

     occupation numbers 
     1.0000   1.0000   1.0000   1.0000   1.0000   1.0000   1.0000   1.0000
     1.0000   1.0000   1.0000   1.0000   1.0000   1.0000   1.0000   1.0000
     1.0000   1.0000   1.0000   1.0000   1.0000   1.0000   1.0000   1.0000
     1.0000   1.0000   1.0000   1.0000   1.0000   1.0000   1.0000   1.0000
     1.0000   1.0000   1.0000   1.0000   1.0000   1.0000   1.0000   1.0000
     1.0000   1.0000   1.0000   1.0000   1.0000   1.0000

          k = 0.0000 0.0000 0.0276 (  6727 PWs)   bands (ev):

   -64.6097 -64.6095 -38.0461 -38.0461 -38.0422 -38.0422 -38.0395 -38.0395
   -38.0359 -38.0359 -38.0106 -38.0106 -38.0068 -38.0068 -38.0039 -38.0039
   -38.0004 -38.0004 -37.9954 -37.9919 -37.9883 -37.9850 -28.8253 -28.8251
   -28.7318 -28.7318 -28.7316 -28.7316  -5.2908  -5.2671  -3.9859  -3.9414
     3.2279   3.4471   7.0057   7.0057   7.0069   7.0069   7.0476   7.8072
     8.1346   8.1348   8.1387   8.1388   9.0662   9.4989

     occupation numbers 
     1.0000   1.0000   1.0000   1.0000   1.0000   1.0000   1.0000   1.0000
     1.0000   1.0000   1.0000   1.0000   1.0000   1.0000   1.0000   1.0000
     1.0000   1.0000   1.0000   1.0000   1.0000   1.0000   1.0000   1.0000
     1.0000   1.0000   1.0000   1.0000   1.0000   1.0000   1.0000   1.0000
     1.0000   1.0000   1.0000   1.0000   1.0000   1.0000   1.0000   1.0000
     1.0000   1.0000   1.0000   1.0000   1.0000   1.0000

          k = 0.0000 0.0000 0.0552 (  6763 PWs)   bands (ev):

   -64.6098 -64.6095 -38.0461 -38.0461 -38.0422 -38.0422 -38.0395 -38.0395
   -38.0359 -38.0359 -38.0106 -38.0106 -38.0068 -38.0068 -38.0039 -38.0039
   -38.0004 -38.0004 -37.9954 -37.9919 -37.9883 -37.9850 -28.8253 -28.8251
   -28.7318 -28.7318 -28.7316 -28.7316  -5.2881  -5.2700  -3.9806  -3.9466
     3.2517   3.4192   7.0058   7.0058   7.0067   7.0068   7.1231   7.6943
     8.1351   8.1352   8.1382   8.1383   9.1429   9.4642

     occupation numbers 
     1.0000   1.0000   1.0000   1.0000   1.0000   1.0000   1.0000   1.0000
     1.0000   1.0000   1.0000   1.0000   1.0000   1.0000   1.0000   1.0000
     1.0000   1.0000   1.0000   1.0000   1.0000   1.0000   1.0000   1.0000
     1.0000   1.0000   1.0000   1.0000   1.0000   1.0000   1.0000   1.0000
     1.0000   1.0000   1.0000   1.0000   1.0000   1.0000   1.0000   1.0000
     1.0000   1.0000   1.0000   1.0000   1.0000   1.0000

          k = 0.0000 0.0000 0.0828 (  6775 PWs)   bands (ev):

   -64.6098 -64.6095 -38.0461 -38.0461 -38.0422 -38.0422 -38.0395 -38.0395
   -38.0359 -38.0359 -38.0106 -38.0106 -38.0068 -38.0068 -38.0039 -38.0039
   -38.0004 -38.0004 -37.9954 -37.9919 -37.9883 -37.9850 -28.8253 -28.8251
   -28.7319 -28.7318 -28.7316 -28.7316  -5.2840  -5.2742  -3.9728  -3.9544
     3.2882   3.3787   7.0060   7.0060   7.0065   7.0066   7.2399   7.5443
     8.1358   8.1359   8.1375   8.1376   9.2378   9.4070

     occupation numbers 
     1.0000   1.0000   1.0000   1.0000   1.0000   1.0000   1.0000   1.0000
     1.0000   1.0000   1.0000   1.0000   1.0000   1.0000   1.0000   1.0000
     1.0000   1.0000   1.0000   1.0000   1.0000   1.0000   1.0000   1.0000
     1.0000   1.0000   1.0000   1.0000   1.0000   1.0000   1.0000   1.0000
     1.0000   1.0000   1.0000   1.0000   1.0000   1.0000   1.0000   1.0000
     1.0000   1.0000   1.0000   1.0000   1.0000   1.0000

          k = 0.0000 0.0000-0.1104 (  6788 PWs)   bands (ev):

   -64.6098 -64.6095 -38.0461 -38.0461 -38.0422 -38.0422 -38.0395 -38.0395
   -38.0359 -38.0359 -38.0106 -38.0106 -38.0068 -38.0068 -38.0039 -38.0039
   -38.0004 -38.0004 -37.9954 -37.9919 -37.9883 -37.9850 -28.8253 -28.8251
   -28.7319 -28.7318 -28.7317 -28.7316  -5.2792  -5.2790  -3.9636  -3.9635
     3.3324   3.3329   7.0062   7.0063   7.0063   7.0063   7.3850   7.3863
     8.1366   8.1367   8.1368   8.1368   9.3291   9.3303

     occupation numbers 
     1.0000   1.0000   1.0000   1.0000   1.0000   1.0000   1.0000   1.0000
     1.0000   1.0000   1.0000   1.0000   1.0000   1.0000   1.0000   1.0000
     1.0000   1.0000   1.0000   1.0000   1.0000   1.0000   1.0000   1.0000
     1.0000   1.0000   1.0000   1.0000   1.0000   1.0000   1.0000   1.0000
     1.0000   1.0000   1.0000   1.0000   1.0000   1.0000   1.0000   1.0000
     1.0000   1.0000   1.0000   1.0000   1.0000   1.0000

          k = 0.0000 0.1443 0.0000 (  6743 PWs)   bands (ev):

   -64.6085 -64.6083 -38.0461 -38.0455 -38.0422 -38.0416 -38.0395 -38.0390
   -38.0359 -38.0354 -38.0108 -38.0107 -38.0070 -38.0069 -38.0042 -38.0040
   -38.0006 -38.0005 -37.9952 -37.9917 -37.9880 -37.9848 -28.8189 -28.8187
   -28.7627 -28.7624 -28.7390 -28.7387  -5.0686  -5.0433  -3.8796  -3.8347
     3.5021   3.7389   6.3644   6.3683   6.6334   7.0474   7.2185   7.2214
     7.7792   7.7850   8.1207   8.4411   8.9900   9.2923

     occupation numbers 
     1.0000   1.0000   1.0000   1.0000   1.0000   1.0000   1.0000   1.0000
     1.0000   1.0000   1.0000   1.0000   1.0000   1.0000   1.0000   1.0000
     1.0000   1.0000   1.0000   1.0000   1.0000   1.0000   1.0000   1.0000
     1.0000   1.0000   1.0000   1.0000   1.0000   1.0000   1.0000   1.0000
     1.0000   1.0000   1.0000   1.0000   1.0000   1.0000   1.0000   1.0000
     1.0000   1.0000   1.0000   1.0000   1.0000   1.0000

          k = 0.0000 0.1443 0.0276 (  6752 PWs)   bands (ev):

   -64.6085 -64.6083 -38.0461 -38.0455 -38.0422 -38.0416 -38.0395 -38.0390
   -38.0359 -38.0354 -38.0108 -38.0107 -38.0070 -38.0069 -38.0042 -38.0040
   -38.0006 -38.0005 -37.9952 -37.9917 -37.9880 -37.9848 -28.8189 -28.8188
   -28.7627 -28.7625 -28.7390 -28.7388  -5.0676  -5.0442  -3.8779  -3.8363
     3.5103   3.7289   6.3645   6.3682   6.6508   7.0335   7.2186   7.2212
     7.7794   7.7848   8.1270   8.4163   9.0127   9.2857

     occupation numbers 
     1.0000   1.0000   1.0000   1.0000   1.0000   1.0000   1.0000   1.0000
     1.0000   1.0000   1.0000   1.0000   1.0000   1.0000   1.0000   1.0000
     1.0000   1.0000   1.0000   1.0000   1.0000   1.0000   1.0000   1.0000
     1.0000   1.0000   1.0000   1.0000   1.0000   1.0000   1.0000   1.0000
     1.0000   1.0000   1.0000   1.0000   1.0000   1.0000   1.0000   1.0000
     1.0000   1.0000   1.0000   1.0000   1.0000   1.0000

          k = 0.0000 0.1443 0.0552 (  6738 PWs)   bands (ev):

   -64.6085 -64.6083 -38.0461 -38.0455 -38.0422 -38.0416 -38.0395 -38.0390
   -38.0359 -38.0354 -38.0108 -38.0107 -38.0070 -38.0069 -38.0042 -38.0040
   -38.0006 -38.0005 -37.9952 -37.9917 -37.9880 -37.9848 -28.8189 -28.8187
   -28.7626 -28.7624 -28.7390 -28.7387  -5.0650  -5.0471  -3.8729  -3.8412
     3.5339   3.7009   6.3649   6.3677   6.6996   6.9930   7.2189   7.2209
     7.7800   7.7841   8.1461   8.3572   9.0667   9.2660

     occupation numbers 
     1.0000   1.0000   1.0000   1.0000   1.0000   1.0000   1.0000   1.0000
     1.0000   1.0000   1.0000   1.0000   1.0000   1.0000   1.0000   1.0000
     1.0000   1.0000   1.0000   1.0000   1.0000   1.0000   1.0000   1.0000
     1.0000   1.0000   1.0000   1.0000   1.0000   1.0000   1.0000   1.0000
     1.0000   1.0000   1.0000   1.0000   1.0000   1.0000   1.0000   1.0000
     1.0000   1.0000   1.0000   1.0000   1.0000   1.0000

          k = 0.0000 0.1443 0.0828 (  6739 PWs)   bands (ev):

   -64.6085 -64.6083 -38.0461 -38.0455 -38.0422 -38.0416 -38.0395 -38.0390
   -38.0359 -38.0354 -38.0108 -38.0107 -38.0070 -38.0069 -38.0042 -38.0040
   -38.0006 -38.0005 -37.9952 -37.9917 -37.9880 -37.9848 -28.8189 -28.8187
   -28.7627 -28.7624 -28.7390 -28.7388  -5.0609  -5.0512  -3.8656  -3.8484
     3.5701   3.6603   6.3655   6.3670   6.7709   6.9300   7.2194   7.2205
     7.7810   7.7832   8.1793   8.2889   9.1293   9.2329

     occupation numbers 
     1.0000   1.0000   1.0000   1.0000   1.0000   1.0000   1.0000   1.0000
     1.0000   1.0000   1.0000   1.0000   1.0000   1.0000   1.0000   1.0000
     1.0000   1.0000   1.0000   1.0000   1.0000   1.0000   1.0000   1.0000
     1.0000   1.0000   1.0000   1.0000   1.0000   1.0000   1.0000   1.0000
     1.0000   1.0000   1.0000   1.0000   1.0000   1.0000   1.0000   1.0000
     1.0000   1.0000   1.0000   1.0000   1.0000   1.0000

          k = 0.0000 0.1443-0.1104 (  6752 PWs)   bands (ev):

   -64.6085 -64.6083 -38.0461 -38.0455 -38.0422 -38.0416 -38.0395 -38.0390
   -38.0359 -38.0354 -38.0108 -38.0107 -38.0070 -38.0069 -38.0042 -38.0040
   -38.0006 -38.0005 -37.9952 -37.9917 -37.9880 -37.9848 -28.8189 -28.8188
   -28.7627 -28.7624 -28.7390 -28.7388  -5.0562  -5.0560  -3.8570  -3.8569
     3.6140   3.6146   6.3663   6.3663   6.8520   6.8523   7.2199   7.2199
     7.7821   7.7821   8.2268   8.2279   9.1860   9.1875

     occupation numbers 
     1.0000   1.0000   1.0000   1.0000   1.0000   1.0000   1.0000   1.0000
     1.0000   1.0000   1.0000   1.0000   1.0000   1.0000   1.0000   1.0000
     1.0000   1.0000   1.0000   1.0000   1.0000   1.0000   1.0000   1.0000
     1.0000   1.0000   1.0000   1.0000   1.0000   1.0000   1.0000   1.0000
     1.0000   1.0000   1.0000   1.0000   1.0000   1.0000   1.0000   1.0000
     1.0000   1.0000   1.0000   1.0000   1.0000   1.0000

          k = 0.0000 0.2887 0.0000 (  6739 PWs)   bands (ev):

   -64.6055 -64.6052 -38.0461 -38.0442 -38.0422 -38.0403 -38.0395 -38.0376
   -38.0359 -38.0340 -38.0113 -38.0109 -38.0074 -38.0072 -38.0047 -38.0041
   -38.0012 -38.0007 -37.9945 -37.9910 -37.9873 -37.9841 -28.8364 -28.8362
   -28.8036 -28.8034 -28.7562 -28.7560  -4.4713  -4.4477  -3.5933  -3.5574
     4.1524   4.3531   5.1431   5.1810   5.7827   5.9413   7.1150   7.1227
     7.7327   7.7433   7.7513   8.0461   8.5635   8.6177

     occupation numbers 
     1.0000   1.0000   1.0000   1.0000   1.0000   1.0000   1.0000   1.0000
     1.0000   1.0000   1.0000   1.0000   1.0000   1.0000   1.0000   1.0000
     1.0000   1.0000   1.0000   1.0000   1.0000   1.0000   1.0000   1.0000
     1.0000   1.0000   1.0000   1.0000   1.0000   1.0000   1.0000   1.0000
     1.0000   1.0000   1.0000   1.0000   1.0000   1.0000   1.0000   1.0000
     1.0000   1.0000   1.0000   1.0000   1.0000   1.0000

          k = 0.0000 0.2887 0.0276 (  6726 PWs)   bands (ev):

   -64.6055 -64.6052 -38.0461 -38.0442 -38.0422 -38.0403 -38.0395 -38.0376
   -38.0359 -38.0340 -38.0113 -38.0109 -38.0074 -38.0072 -38.0047 -38.0041
   -38.0012 -38.0007 -37.9945 -37.9910 -37.9873 -37.9841 -28.8364 -28.8362
   -28.8035 -28.8034 -28.7561 -28.7559  -4.4705  -4.4487  -3.5919  -3.5588
     4.1592   4.3445   5.1441   5.1789   5.7908   5.9367   7.1153   7.1224
     7.7426   7.7436   7.7510   8.0314   8.5673   8.6166

     occupation numbers 
     1.0000   1.0000   1.0000   1.0000   1.0000   1.0000   1.0000   1.0000
     1.0000   1.0000   1.0000   1.0000   1.0000   1.0000   1.0000   1.0000
     1.0000   1.0000   1.0000   1.0000   1.0000   1.0000   1.0000   1.0000
     1.0000   1.0000   1.0000   1.0000   1.0000   1.0000   1.0000   1.0000
     1.0000   1.0000   1.0000   1.0000   1.0000   1.0000   1.0000   1.0000
     1.0000   1.0000   1.0000   1.0000   1.0000   1.0000

          k = 0.0000 0.2887 0.0552 (  6720 PWs)   bands (ev):

   -64.6055 -64.6052 -38.0461 -38.0442 -38.0422 -38.0403 -38.0395 -38.0376
   -38.0359 -38.0340 -38.0113 -38.0109 -38.0074 -38.0072 -38.0047 -38.0041
   -38.0012 -38.0007 -37.9945 -37.9910 -37.9873 -37.9841 -28.8364 -28.8362
   -28.8035 -28.8033 -28.7561 -28.7559  -4.4680  -4.4513  -3.5880  -3.5626
     4.1791   4.3206   5.1472   5.1734   5.8124   5.9232   7.1161   7.1216
     7.7445   7.7502   7.7714   7.9910   8.5768   8.6133

     occupation numbers 
     1.0000   1.0000   1.0000   1.0000   1.0000   1.0000   1.0000   1.0000
     1.0000   1.0000   1.0000   1.0000   1.0000   1.0000   1.0000   1.0000
     1.0000   1.0000   1.0000   1.0000   1.0000   1.0000   1.0000   1.0000
     1.0000   1.0000   1.0000   1.0000   1.0000   1.0000   1.0000   1.0000
     1.0000   1.0000   1.0000   1.0000   1.0000   1.0000   1.0000   1.0000
     1.0000   1.0000   1.0000   1.0000   1.0000   1.0000

          k = 0.0000 0.2887 0.0828 (  6731 PWs)   bands (ev):

   -64.6055 -64.6052 -38.0461 -38.0442 -38.0422 -38.0403 -38.0395 -38.0376
   -38.0359 -38.0340 -38.0113 -38.0109 -38.0074 -38.0072 -38.0047 -38.0041
   -38.0012 -38.0007 -37.9945 -37.9910 -37.9873 -37.9841 -28.8364 -28.8362
   -28.8035 -28.8034 -28.7562 -28.7560  -4.4642  -4.4552  -3.5821  -3.5683
     4.2096   4.2860   5.1522   5.1661   5.8421   5.9015   7.1173   7.1203
     7.7458   7.7489   7.8166   7.9348   8.5883   8.6074

     occupation numbers 
     1.0000   1.0000   1.0000   1.0000   1.0000   1.0000   1.0000   1.0000
     1.0000   1.0000   1.0000   1.0000   1.0000   1.0000   1.0000   1.0000
     1.0000   1.0000   1.0000   1.0000   1.0000   1.0000   1.0000   1.0000
     1.0000   1.0000   1.0000   1.0000   1.0000   1.0000   1.0000   1.0000
     1.0000   1.0000   1.0000   1.0000   1.0000   1.0000   1.0000   1.0000
     1.0000   1.0000   1.0000   1.0000   1.0000   1.0000

          k = 0.0000 0.2887-0.1104 (  6730 PWs)   bands (ev):

   -64.6055 -64.6052 -38.0461 -38.0442 -38.0422 -38.0403 -38.0395 -38.0376
   -38.0359 -38.0340 -38.0113 -38.0109 -38.0074 -38.0072 -38.0047 -38.0041
   -38.0012 -38.0007 -37.9945 -37.9910 -37.9873 -37.9841 -28.8364 -28.8362
   -28.8035 -28.8034 -28.7562 -28.7560  -4.4599  -4.4597  -3.5752  -3.5751
     4.2466   4.2473   5.1586   5.1589   5.8733   5.8736   7.1188   7.1189
     7.7473   7.7473   7.8731   7.8738   8.5986   8.5993

     occupation numbers 
     1.0000   1.0000   1.0000   1.0000   1.0000   1.0000   1.0000   1.0000
     1.0000   1.0000   1.0000   1.0000   1.0000   1.0000   1.0000   1.0000
     1.0000   1.0000   1.0000   1.0000   1.0000   1.0000   1.0000   1.0000
     1.0000   1.0000   1.0000   1.0000   1.0000   1.0000   1.0000   1.0000
     1.0000   1.0000   1.0000   1.0000   1.0000   1.0000   1.0000   1.0000
     1.0000   1.0000   1.0000   1.0000   1.0000   1.0000

          k = 0.0000 0.4330 0.0000 (  6731 PWs)   bands (ev):

   -64.6025 -64.6022 -38.0461 -38.0428 -38.0422 -38.0395 -38.0389 -38.0363
   -38.0359 -38.0326 -38.0117 -38.0111 -38.0079 -38.0074 -38.0052 -38.0043
   -38.0017 -38.0009 -37.9939 -37.9904 -37.9866 -37.9834 -28.9092 -28.9090
   -28.7881 -28.7880 -28.7733 -28.7731  -3.7480  -3.7302  -3.2590  -3.2371
     3.6651   3.7069   4.8487   4.9049   5.0896   5.2485   6.5990   6.6078
     7.4387   7.6145   8.2451   8.2495   8.2636   8.3184

     occupation numbers 
     1.0000   1.0000   1.0000   1.0000   1.0000   1.0000   1.0000   1.0000
     1.0000   1.0000   1.0000   1.0000   1.0000   1.0000   1.0000   1.0000
     1.0000   1.0000   1.0000   1.0000   1.0000   1.0000   1.0000   1.0000
     1.0000   1.0000   1.0000   1.0000   1.0000   1.0000   1.0000   1.0000
     1.0000   1.0000   1.0000   1.0000   1.0000   1.0000   1.0000   1.0000
     1.0000   1.0000   1.0000   1.0000   1.0000   1.0000

          k = 0.0000 0.4330 0.0276 (  6719 PWs)   bands (ev):

   -64.6024 -64.6022 -38.0461 -38.0428 -38.0422 -38.0395 -38.0389 -38.0363
   -38.0359 -38.0326 -38.0117 -38.0111 -38.0079 -38.0074 -38.0052 -38.0043
   -38.0017 -38.0009 -37.9939 -37.9904 -37.9866 -37.9834 -28.9092 -28.9090
   -28.7881 -28.7879 -28.7733 -28.7731  -3.7473  -3.7309  -3.2582  -3.2379
     3.6667   3.7053   4.8496   4.9008   5.0976   5.2437   6.5993   6.6075
     7.4447   7.6071   8.2458   8.2528   8.2629   8.3164

     occupation numbers 
     1.0000   1.0000   1.0000   1.0000   1.0000   1.0000   1.0000   1.0000
     1.0000   1.0000   1.0000   1.0000   1.0000   1.0000   1.0000   1.0000
     1.0000   1.0000   1.0000   1.0000   1.0000   1.0000   1.0000   1.0000
     1.0000   1.0000   1.0000   1.0000   1.0000   1.0000   1.0000   1.0000
     1.0000   1.0000   1.0000   1.0000   1.0000   1.0000   1.0000   1.0000
     1.0000   1.0000   1.0000   1.0000   1.0000   1.0000

          k = 0.0000 0.4330 0.0552 (  6712 PWs)   bands (ev):

   -64.6024 -64.6022 -38.0461 -38.0428 -38.0422 -38.0395 -38.0389 -38.0363
   -38.0359 -38.0326 -38.0117 -38.0111 -38.0079 -38.0074 -38.0052 -38.0043
   -38.0017 -38.0009 -37.9939 -37.9904 -37.9866 -37.9834 -28.9092 -28.9090
   -28.7881 -28.7879 -28.7733 -28.7731  -3.7455  -3.7329  -3.2557  -3.2402
     3.6711   3.7007   4.8526   4.8903   5.1192   5.2294   6.6003   6.6065
     7.4622   7.5863   8.2478   8.2609   8.2620   8.3103

     occupation numbers 
     1.0000   1.0000   1.0000   1.0000   1.0000   1.0000   1.0000   1.0000
     1.0000   1.0000   1.0000   1.0000   1.0000   1.0000   1.0000   1.0000
     1.0000   1.0000   1.0000   1.0000   1.0000   1.0000   1.0000   1.0000
     1.0000   1.0000   1.0000   1.0000   1.0000   1.0000   1.0000   1.0000
     1.0000   1.0000   1.0000   1.0000   1.0000   1.0000   1.0000   1.0000
     1.0000   1.0000   1.0000   1.0000   1.0000   1.0000

          k = 0.0000 0.4330 0.0828 (  6710 PWs)   bands (ev):

   -64.6024 -64.6022 -38.0461 -38.0428 -38.0422 -38.0395 -38.0389 -38.0363
   -38.0359 -38.0326 -38.0117 -38.0111 -38.0079 -38.0074 -38.0052 -38.0043
   -38.0017 -38.0009 -37.9939 -37.9904 -37.9866 -37.9834 -28.9092 -28.9090
   -28.7881 -28.7879 -28.7733 -28.7731  -3.7426  -3.7358  -3.2521  -3.2437
     3.6778   3.6938   4.8581   4.8782   5.1480   5.2072   6.6017   6.6051
     7.4891   7.5563   8.2508   8.2579   8.2747   8.3007

     occupation numbers 
     1.0000   1.0000   1.0000   1.0000   1.0000   1.0000   1.0000   1.0000
     1.0000   1.0000   1.0000   1.0000   1.0000   1.0000   1.0000   1.0000
     1.0000   1.0000   1.0000   1.0000   1.0000   1.0000   1.0000   1.0000
     1.0000   1.0000   1.0000   1.0000   1.0000   1.0000   1.0000   1.0000
     1.0000   1.0000   1.0000   1.0000   1.0000   1.0000   1.0000   1.0000
     1.0000   1.0000   1.0000   1.0000   1.0000   1.0000

          k = 0.0000 0.4330-0.1104 (  6696 PWs)   bands (ev):

   -64.6024 -64.6022 -38.0461 -38.0428 -38.0422 -38.0395 -38.0389 -38.0363
   -38.0359 -38.0326 -38.0117 -38.0111 -38.0079 -38.0074 -38.0052 -38.0043
   -38.0017 -38.0009 -37.9939 -37.9904 -37.9866 -37.9834 -28.9092 -28.9090
   -28.7881 -28.7879 -28.7733 -28.7731  -3.7394  -3.7392  -3.2479  -3.2478
     3.6857   3.6859   4.8661   4.8675   5.1783   5.1794   6.6034   6.6034
     7.5218   7.5223   8.2543   8.2543   8.2881   8.2885

     occupation numbers 
     1.0000   1.0000   1.0000   1.0000   1.0000   1.0000   1.0000   1.0000
     1.0000   1.0000   1.0000   1.0000   1.0000   1.0000   1.0000   1.0000
     1.0000   1.0000   1.0000   1.0000   1.0000   1.0000   1.0000   1.0000
     1.0000   1.0000   1.0000   1.0000   1.0000   1.0000   1.0000   1.0000
     1.0000   1.0000   1.0000   1.0000   1.0000   1.0000   1.0000   1.0000
     1.0000   1.0000   1.0000   1.0000   1.0000   1.0000

          k = 0.0000-0.5774 0.0000 (  6696 PWs)   bands (ev):

   -64.6012 -64.6009 -38.0461 -38.0423 -38.0422 -38.0394 -38.0383 -38.0359
   -38.0357 -38.0321 -38.0120 -38.0112 -38.0081 -38.0075 -38.0054 -38.0043
   -38.0019 -38.0009 -37.9936 -37.9902 -37.9863 -37.9832 -28.9390 -28.9388
   -28.7817 -28.7815 -28.7804 -28.7802  -3.3859  -3.3754  -3.0996  -3.0889
     3.1543   3.1926   4.4389   4.4685   5.2301   5.3558   6.4122   6.4214
     7.4133   7.4346   8.4244   8.4496   8.4964   8.5166

     occupation numbers 
     1.0000   1.0000   1.0000   1.0000   1.0000   1.0000   1.0000   1.0000
     1.0000   1.0000   1.0000   1.0000   1.0000   1.0000   1.0000   1.0000
     1.0000   1.0000   1.0000   1.0000   1.0000   1.0000   1.0000   1.0000
     1.0000   1.0000   1.0000   1.0000   1.0000   1.0000   1.0000   1.0000
     1.0000   1.0000   1.0000   1.0000   1.0000   1.0000   1.0000   1.0000
     1.0000   1.0000   1.0000   1.0000   1.0000   1.0000

          k = 0.0000-0.5774 0.0276 (  6712 PWs)   bands (ev):

   -64.6012 -64.6009 -38.0461 -38.0423 -38.0422 -38.0394 -38.0383 -38.0359
   -38.0357 -38.0321 -38.0120 -38.0112 -38.0081 -38.0075 -38.0054 -38.0043
   -38.0019 -38.0009 -37.9936 -37.9902 -37.9863 -37.9832 -28.9390 -28.9388
   -28.7818 -28.7816 -28.7804 -28.7802  -3.3855  -3.3758  -3.0992  -3.0893
     3.1557   3.1911   4.4398   4.4671   5.2352   5.3513   6.4126   6.4210
     7.4140   7.4337   8.4254   8.4486   8.4972   8.5159

     occupation numbers 
     1.0000   1.0000   1.0000   1.0000   1.0000   1.0000   1.0000   1.0000
     1.0000   1.0000   1.0000   1.0000   1.0000   1.0000   1.0000   1.0000
     1.0000   1.0000   1.0000   1.0000   1.0000   1.0000   1.0000   1.0000
     1.0000   1.0000   1.0000   1.0000   1.0000   1.0000   1.0000   1.0000
     1.0000   1.0000   1.0000   1.0000   1.0000   1.0000   1.0000   1.0000
     1.0000   1.0000   1.0000   1.0000   1.0000   1.0000

          k = 0.0000-0.5774 0.0552 (  6698 PWs)   bands (ev):

   -64.6012 -64.6009 -38.0461 -38.0423 -38.0422 -38.0394 -38.0383 -38.0359
   -38.0357 -38.0321 -38.0120 -38.0112 -38.0081 -38.0075 -38.0054 -38.0043
   -38.0019 -38.0009 -37.9936 -37.9902 -37.9863 -37.9832 -28.9390 -28.9388
   -28.7817 -28.7815 -28.7804 -28.7802  -3.3844  -3.3770  -3.0980  -3.0904
     3.1598   3.1869   4.4425   4.4632   5.2496   5.3384   6.4136   6.4200
     7.4160   7.4310   8.4281   8.4459   8.4996   8.5139

     occupation numbers 
     1.0000   1.0000   1.0000   1.0000   1.0000   1.0000   1.0000   1.0000
     1.0000   1.0000   1.0000   1.0000   1.0000   1.0000   1.0000   1.0000
     1.0000   1.0000   1.0000   1.0000   1.0000   1.0000   1.0000   1.0000
     1.0000   1.0000   1.0000   1.0000   1.0000   1.0000   1.0000   1.0000
     1.0000   1.0000   1.0000   1.0000   1.0000   1.0000   1.0000   1.0000
     1.0000   1.0000   1.0000   1.0000   1.0000   1.0000

          k = 0.0000-0.5774 0.0828 (  6696 PWs)   bands (ev):

   -64.6012 -64.6009 -38.0461 -38.0423 -38.0422 -38.0394 -38.0383 -38.0359
   -38.0357 -38.0321 -38.0120 -38.0112 -38.0081 -38.0075 -38.0054 -38.0043
   -38.0019 -38.0009 -37.9936 -37.9902 -37.9863 -37.9832 -28.9390 -28.9388
   -28.7817 -28.7815 -28.7804 -28.7802  -3.3827  -3.3787  -3.0962  -3.0921
     3.1660   3.1806   4.4466   4.4578   5.2707   5.3187   6.4150   6.4185
     7.4191   7.4272   8.4322   8.4418   8.5031   8.5109

     occupation numbers 
     1.0000   1.0000   1.0000   1.0000   1.0000   1.0000   1.0000   1.0000
     1.0000   1.0000   1.0000   1.0000   1.0000   1.0000   1.0000   1.0000
     1.0000   1.0000   1.0000   1.0000   1.0000   1.0000   1.0000   1.0000
     1.0000   1.0000   1.0000   1.0000   1.0000   1.0000   1.0000   1.0000
     1.0000   1.0000   1.0000   1.0000   1.0000   1.0000   1.0000   1.0000
     1.0000   1.0000   1.0000   1.0000   1.0000   1.0000

          k = 0.0000-0.5774-0.1104 (  6700 PWs)   bands (ev):

   -64.6012 -64.6009 -38.0461 -38.0423 -38.0422 -38.0394 -38.0383 -38.0359
   -38.0357 -38.0321 -38.0120 -38.0112 -38.0081 -38.0075 -38.0054 -38.0043
   -38.0019 -38.0009 -37.9936 -37.9902 -37.9863 -37.9832 -28.9390 -28.9388
   -28.7817 -28.7815 -28.7804 -28.7802  -3.3809  -3.3806  -3.0943  -3.0941
     3.1732   3.1734   4.4517   4.4522   5.2949   5.2950   6.4168   6.4168
     7.4228   7.4231   8.4370   8.4370   8.5071   8.5071

     occupation numbers 
     1.0000   1.0000   1.0000   1.0000   1.0000   1.0000   1.0000   1.0000
     1.0000   1.0000   1.0000   1.0000   1.0000   1.0000   1.0000   1.0000
     1.0000   1.0000   1.0000   1.0000   1.0000   1.0000   1.0000   1.0000
     1.0000   1.0000   1.0000   1.0000   1.0000   1.0000   1.0000   1.0000
     1.0000   1.0000   1.0000   1.0000   1.0000   1.0000   1.0000   1.0000
     1.0000   1.0000   1.0000   1.0000   1.0000   1.0000

          k = 0.1250 0.2165 0.0000 (  6761 PWs)   bands (ev):

   -64.6064 -64.6061 -38.0460 -38.0446 -38.0421 -38.0408 -38.0395 -38.0381
   -38.0358 -38.0345 -38.0111 -38.0108 -38.0073 -38.0071 -38.0045 -38.0041
   -38.0010 -38.0006 -37.9947 -37.9912 -37.9875 -37.9843 -28.8116 -28.8114
   -28.8081 -28.8079 -28.7545 -28.7543  -4.6570  -4.6326  -3.6812  -3.6423
     4.0028   4.2337   5.4906   5.4968   6.1777   6.4215   6.8589   6.9074
     7.4765   7.4796   8.2095   8.4770   8.7748   8.8667

     occupation numbers 
     1.0000   1.0000   1.0000   1.0000   1.0000   1.0000   1.0000   1.0000
     1.0000   1.0000   1.0000   1.0000   1.0000   1.0000   1.0000   1.0000
     1.0000   1.0000   1.0000   1.0000   1.0000   1.0000   1.0000   1.0000
     1.0000   1.0000   1.0000   1.0000   1.0000   1.0000   1.0000   1.0000
     1.0000   1.0000   1.0000   1.0000   1.0000   1.0000   1.0000   1.0000
     1.0000   1.0000   1.0000   1.0000   1.0000   1.0000

          k = 0.1250 0.2165 0.0276 (  6750 PWs)   bands (ev):

   -64.6064 -64.6061 -38.0460 -38.0446 -38.0421 -38.0408 -38.0395 -38.0381
   -38.0358 -38.0345 -38.0111 -38.0108 -38.0073 -38.0071 -38.0045 -38.0041
   -38.0010 -38.0006 -37.9947 -37.9912 -37.9875 -37.9843 -28.8116 -28.8114
   -28.8081 -28.8079 -28.7545 -28.7543  -4.6561  -4.6336  -3.6797  -3.6437
     4.0106   4.2236   5.4909   5.4965   6.1891   6.4142   6.8604   6.9051
     7.4766   7.4795   8.2165   8.4609   8.7827   8.8651

     occupation numbers 
     1.0000   1.0000   1.0000   1.0000   1.0000   1.0000   1.0000   1.0000
     1.0000   1.0000   1.0000   1.0000   1.0000   1.0000   1.0000   1.0000
     1.0000   1.0000   1.0000   1.0000   1.0000   1.0000   1.0000   1.0000
     1.0000   1.0000   1.0000   1.0000   1.0000   1.0000   1.0000   1.0000
     1.0000   1.0000   1.0000   1.0000   1.0000   1.0000   1.0000   1.0000
     1.0000   1.0000   1.0000   1.0000   1.0000   1.0000

          k = 0.1250 0.2165 0.0552 (  6737 PWs)   bands (ev):

   -64.6064 -64.6061 -38.0460 -38.0446 -38.0421 -38.0408 -38.0395 -38.0381
   -38.0358 -38.0345 -38.0111 -38.0108 -38.0073 -38.0071 -38.0045 -38.0041
   -38.0010 -38.0006 -37.9947 -37.9912 -37.9875 -37.9843 -28.8116 -28.8114
   -28.8080 -28.8079 -28.7545 -28.7543  -4.6535  -4.6363  -3.6754  -3.6479
     4.0331   4.1958   5.4915   5.4959   6.2206   6.3926   6.8646   6.8988
     7.4770   7.4792   8.2372   8.4198   8.8009   8.8600

     occupation numbers 
     1.0000   1.0000   1.0000   1.0000   1.0000   1.0000   1.0000   1.0000
     1.0000   1.0000   1.0000   1.0000   1.0000   1.0000   1.0000   1.0000
     1.0000   1.0000   1.0000   1.0000   1.0000   1.0000   1.0000   1.0000
     1.0000   1.0000   1.0000   1.0000   1.0000   1.0000   1.0000   1.0000
     1.0000   1.0000   1.0000   1.0000   1.0000   1.0000   1.0000   1.0000
     1.0000   1.0000   1.0000   1.0000   1.0000   1.0000

          k = 0.1250 0.2165 0.0828 (  6734 PWs)   bands (ev):

   -64.6064 -64.6061 -38.0460 -38.0446 -38.0421 -38.0408 -38.0395 -38.0381
   -38.0358 -38.0345 -38.0111 -38.0108 -38.0073 -38.0071 -38.0045 -38.0041
   -38.0010 -38.0006 -37.9947 -37.9912 -37.9875 -37.9843 -28.8116 -28.8114
   -28.8080 -28.8078 -28.7545 -28.7543  -4.6497  -4.6403  -3.6690  -3.6541
     4.0679   4.1557   5.4925   5.4949   6.2650   6.3579   6.8714   6.8898
     7.4775   7.4787   8.2709   8.3678   8.8209   8.8512

     occupation numbers 
     1.0000   1.0000   1.0000   1.0000   1.0000   1.0000   1.0000   1.0000
     1.0000   1.0000   1.0000   1.0000   1.0000   1.0000   1.0000   1.0000
     1.0000   1.0000   1.0000   1.0000   1.0000   1.0000   1.0000   1.0000
     1.0000   1.0000   1.0000   1.0000   1.0000   1.0000   1.0000   1.0000
     1.0000   1.0000   1.0000   1.0000   1.0000   1.0000   1.0000   1.0000
     1.0000   1.0000   1.0000   1.0000   1.0000   1.0000

          k = 0.1250 0.2165-0.1104 (  6742 PWs)   bands (ev):

   -64.6064 -64.6061 -38.0460 -38.0446 -38.0421 -38.0408 -38.0395 -38.0381
   -38.0358 -38.0345 -38.0111 -38.0108 -38.0073 -38.0071 -38.0045 -38.0041
   -38.0010 -38.0006 -37.9947 -37.9912 -37.9875 -37.9843 -28.8116 -28.8114
   -28.8081 -28.8079 -28.7545 -28.7543  -4.6451  -4.6449  -3.6616  -3.6615
     4.1104   4.1111   5.4937   5.4937   6.3135   6.3135   6.8801   6.8802
     7.4780   7.4781   8.3152   8.3163   8.8376   8.8388

     occupation numbers 
     1.0000   1.0000   1.0000   1.0000   1.0000   1.0000   1.0000   1.0000
     1.0000   1.0000   1.0000   1.0000   1.0000   1.0000   1.0000   1.0000
     1.0000   1.0000   1.0000   1.0000   1.0000   1.0000   1.0000   1.0000
     1.0000   1.0000   1.0000   1.0000   1.0000   1.0000   1.0000   1.0000
     1.0000   1.0000   1.0000   1.0000   1.0000   1.0000   1.0000   1.0000
     1.0000   1.0000   1.0000   1.0000   1.0000   1.0000

          k = 0.1250 0.3608 0.0000 (  6711 PWs)   bands (ev):

   -64.6033 -64.6031 -38.0458 -38.0435 -38.0419 -38.0396 -38.0392 -38.0369
   -38.0356 -38.0333 -38.0116 -38.0110 -38.0078 -38.0073 -38.0050 -38.0043
   -38.0015 -38.0009 -37.9941 -37.9906 -37.9868 -37.9836 -28.8774 -28.8772
   -28.7926 -28.7924 -28.7791 -28.7789  -3.9837  -3.9631  -3.3619  -3.3344
     4.2268   4.2857   4.9471   5.0956   5.2881   5.3411   6.2601   6.3743
     7.3579   7.3661   7.8939   8.0245   8.6452   8.6542

     occupation numbers 
     1.0000   1.0000   1.0000   1.0000   1.0000   1.0000   1.0000   1.0000
     1.0000   1.0000   1.0000   1.0000   1.0000   1.0000   1.0000   1.0000
     1.0000   1.0000   1.0000   1.0000   1.0000   1.0000   1.0000   1.0000
     1.0000   1.0000   1.0000   1.0000   1.0000   1.0000   1.0000   1.0000
     1.0000   1.0000   1.0000   1.0000   1.0000   1.0000   1.0000   1.0000
     1.0000   1.0000   1.0000   1.0000   1.0000   1.0000

          k = 0.1250 0.3608 0.0276 (  6728 PWs)   bands (ev):

   -64.6033 -64.6031 -38.0458 -38.0435 -38.0419 -38.0396 -38.0392 -38.0369
   -38.0356 -38.0333 -38.0116 -38.0110 -38.0078 -38.0073 -38.0050 -38.0043
   -38.0015 -38.0009 -37.9941 -37.9906 -37.9868 -37.9836 -28.8774 -28.8772
   -28.7927 -28.7925 -28.7791 -28.7789  -3.9829  -3.9639  -3.3608  -3.3355
     4.2291   4.2835   4.9511   5.0863   5.2933   5.3404   6.2650   6.3705
     7.3582   7.3657   7.8981   8.0187   8.6457   8.6540

     occupation numbers 
     1.0000   1.0000   1.0000   1.0000   1.0000   1.0000   1.0000   1.0000
     1.0000   1.0000   1.0000   1.0000   1.0000   1.0000   1.0000   1.0000
     1.0000   1.0000   1.0000   1.0000   1.0000   1.0000   1.0000   1.0000
     1.0000   1.0000   1.0000   1.0000   1.0000   1.0000   1.0000   1.0000
     1.0000   1.0000   1.0000   1.0000   1.0000   1.0000   1.0000   1.0000
     1.0000   1.0000   1.0000   1.0000   1.0000   1.0000

          k = 0.1250 0.3608 0.0552 (  6727 PWs)   bands (ev):

   -64.6033 -64.6031 -38.0458 -38.0435 -38.0419 -38.0396 -38.0392 -38.0369
   -38.0356 -38.0333 -38.0116 -38.0110 -38.0078 -38.0073 -38.0050 -38.0043
   -38.0015 -38.0009 -37.9941 -37.9906 -37.9868 -37.9836 -28.8774 -28.8772
   -28.7927 -28.7925 -28.7791 -28.7789  -3.9808  -3.9662  -3.3578  -3.3384
     4.2357   4.2774   4.9626   5.0633   5.3050   5.3383   6.2788   6.3595
     7.3590   7.3646   7.9106   8.0027   8.6470   8.6533

     occupation numbers 
     1.0000   1.0000   1.0000   1.0000   1.0000   1.0000   1.0000   1.0000
     1.0000   1.0000   1.0000   1.0000   1.0000   1.0000   1.0000   1.0000
     1.0000   1.0000   1.0000   1.0000   1.0000   1.0000   1.0000   1.0000
     1.0000   1.0000   1.0000   1.0000   1.0000   1.0000   1.0000   1.0000
     1.0000   1.0000   1.0000   1.0000   1.0000   1.0000   1.0000   1.0000
     1.0000   1.0000   1.0000   1.0000   1.0000   1.0000

          k = 0.1250 0.3608 0.0828 (  6722 PWs)   bands (ev):

   -64.6033 -64.6031 -38.0458 -38.0435 -38.0419 -38.0396 -38.0392 -38.0369
   -38.0356 -38.0333 -38.0116 -38.0110 -38.0078 -38.0073 -38.0050 -38.0043
   -38.0015 -38.0009 -37.9941 -37.9906 -37.9868 -37.9836 -28.8774 -28.8772
   -28.7926 -28.7925 -28.7791 -28.7789  -3.9775  -3.9696  -3.3532  -3.3427
     4.2454   4.2681   4.9813   5.0343   5.3176   5.3341   6.2988   6.3424
     7.3603   7.3632   7.9300   7.9797   8.6488   8.6522

     occupation numbers 
     1.0000   1.0000   1.0000   1.0000   1.0000   1.0000   1.0000   1.0000
     1.0000   1.0000   1.0000   1.0000   1.0000   1.0000   1.0000   1.0000
     1.0000   1.0000   1.0000   1.0000   1.0000   1.0000   1.0000   1.0000
     1.0000   1.0000   1.0000   1.0000   1.0000   1.0000   1.0000   1.0000
     1.0000   1.0000   1.0000   1.0000   1.0000   1.0000   1.0000   1.0000
     1.0000   1.0000   1.0000   1.0000   1.0000   1.0000

          k = 0.1250 0.3608-0.1104 (  6724 PWs)   bands (ev):

   -64.6033 -64.6031 -38.0458 -38.0435 -38.0419 -38.0396 -38.0392 -38.0369
   -38.0356 -38.0333 -38.0116 -38.0110 -38.0078 -38.0073 -38.0050 -38.0043
   -38.0015 -38.0009 -37.9941 -37.9906 -37.9868 -37.9836 -28.8774 -28.8772
   -28.7926 -28.7925 -28.7791 -28.7789  -3.9737  -3.9735  -3.3480  -3.3479
     4.2567   4.2570   5.0053   5.0064   5.3271   5.3278   6.3211   6.3213
     7.3615   7.3618   7.9541   7.9541   8.6506   8.6507

     occupation numbers 
     1.0000   1.0000   1.0000   1.0000   1.0000   1.0000   1.0000   1.0000
     1.0000   1.0000   1.0000   1.0000   1.0000   1.0000   1.0000   1.0000
     1.0000   1.0000   1.0000   1.0000   1.0000   1.0000   1.0000   1.0000
     1.0000   1.0000   1.0000   1.0000   1.0000   1.0000   1.0000   1.0000
     1.0000   1.0000   1.0000   1.0000   1.0000   1.0000   1.0000   1.0000
     1.0000   1.0000   1.0000   1.0000   1.0000   1.0000

          k = 0.1250 0.5052 0.0000 (  6687 PWs)   bands (ev):

   -64.6012 -64.6009 -38.0457 -38.0426 -38.0418 -38.0391 -38.0386 -38.0361
   -38.0355 -38.0325 -38.0119 -38.0112 -38.0081 -38.0075 -38.0053 -38.0045
   -38.0018 -38.0010 -37.9936 -37.9902 -37.9864 -37.9832 -28.9230 -28.9228
   -28.7968 -28.7966 -28.7817 -28.7815  -3.4041  -3.3920  -3.0972  -3.0839
     3.4921   3.5276   4.4956   4.5092   5.2821   5.4036   6.2333   6.2910
     7.2149   7.2420   7.4796   7.5346   8.8762   8.9162

     occupation numbers 
     1.0000   1.0000   1.0000   1.0000   1.0000   1.0000   1.0000   1.0000
     1.0000   1.0000   1.0000   1.0000   1.0000   1.0000   1.0000   1.0000
     1.0000   1.0000   1.0000   1.0000   1.0000   1.0000   1.0000   1.0000
     1.0000   1.0000   1.0000   1.0000   1.0000   1.0000   1.0000   1.0000
     1.0000   1.0000   1.0000   1.0000   1.0000   1.0000   1.0000   1.0000
     1.0000   1.0000   1.0000   1.0000   1.0000   1.0000

          k = 0.1250 0.5052 0.0276 (  6682 PWs)   bands (ev):

   -64.6012 -64.6009 -38.0457 -38.0426 -38.0418 -38.0391 -38.0386 -38.0361
   -38.0355 -38.0325 -38.0119 -38.0112 -38.0081 -38.0075 -38.0053 -38.0045
   -38.0018 -38.0010 -37.9936 -37.9902 -37.9864 -37.9832 -28.9230 -28.9228
   -28.7968 -28.7966 -28.7817 -28.7815  -3.4037  -3.3925  -3.0966  -3.0844
     3.4934   3.5262   4.4960   4.5086   5.2866   5.3989   6.2360   6.2892
     7.2159   7.2408   7.4814   7.5323   8.8778   8.9148

     occupation numbers 
     1.0000   1.0000   1.0000   1.0000   1.0000   1.0000   1.0000   1.0000
     1.0000   1.0000   1.0000   1.0000   1.0000   1.0000   1.0000   1.0000
     1.0000   1.0000   1.0000   1.0000   1.0000   1.0000   1.0000   1.0000
     1.0000   1.0000   1.0000   1.0000   1.0000   1.0000   1.0000   1.0000
     1.0000   1.0000   1.0000   1.0000   1.0000   1.0000   1.0000   1.0000
     1.0000   1.0000   1.0000   1.0000   1.0000   1.0000

          k = 0.1250 0.5052 0.0552 (  6699 PWs)   bands (ev):

   -64.6012 -64.6009 -38.0457 -38.0426 -38.0418 -38.0391 -38.0386 -38.0361
   -38.0355 -38.0325 -38.0119 -38.0112 -38.0081 -38.0075 -38.0053 -38.0045
   -38.0018 -38.0010 -37.9936 -37.9902 -37.9864 -37.9832 -28.9230 -28.9228
   -28.7968 -28.7966 -28.7817 -28.7816  -3.4024  -3.3939  -3.0952  -3.0858
     3.4972   3.5223   4.4971   4.5067   5.2996   5.3853   6.2435   6.2840
     7.2187   7.2376   7.4867   7.5257   8.8824   8.9107

     occupation numbers 
     1.0000   1.0000   1.0000   1.0000   1.0000   1.0000   1.0000   1.0000
     1.0000   1.0000   1.0000   1.0000   1.0000   1.0000   1.0000   1.0000
     1.0000   1.0000   1.0000   1.0000   1.0000   1.0000   1.0000   1.0000
     1.0000   1.0000   1.0000   1.0000   1.0000   1.0000   1.0000   1.0000
     1.0000   1.0000   1.0000   1.0000   1.0000   1.0000   1.0000   1.0000
     1.0000   1.0000   1.0000   1.0000   1.0000   1.0000

          k = 0.1250 0.5052 0.0828 (  6701 PWs)   bands (ev):

   -64.6012 -64.6009 -38.0457 -38.0426 -38.0418 -38.0391 -38.0386 -38.0361
   -38.0355 -38.0325 -38.0119 -38.0112 -38.0081 -38.0075 -38.0053 -38.0045
   -38.0018 -38.0010 -37.9936 -37.9902 -37.9864 -37.9832 -28.9230 -28.9228
   -28.7968 -28.7966 -28.7817 -28.7816  -3.4005  -3.3959  -3.0930  -3.0879
     3.5029   3.5165   4.4989   4.5042   5.3190   5.3654   6.2540   6.2758
     7.2229   7.2329   7.4949   7.5162   8.8892   8.9045

     occupation numbers 
     1.0000   1.0000   1.0000   1.0000   1.0000   1.0000   1.0000   1.0000
     1.0000   1.0000   1.0000   1.0000   1.0000   1.0000   1.0000   1.0000
     1.0000   1.0000   1.0000   1.0000   1.0000   1.0000   1.0000   1.0000
     1.0000   1.0000   1.0000   1.0000   1.0000   1.0000   1.0000   1.0000
     1.0000   1.0000   1.0000   1.0000   1.0000   1.0000   1.0000   1.0000
     1.0000   1.0000   1.0000   1.0000   1.0000   1.0000

          k = 0.1250 0.5052-0.1104 (  6704 PWs)   bands (ev):

   -64.6012 -64.6009 -38.0457 -38.0426 -38.0418 -38.0391 -38.0386 -38.0361
   -38.0355 -38.0325 -38.0119 -38.0112 -38.0081 -38.0075 -38.0053 -38.0045
   -38.0018 -38.0010 -37.9936 -37.9902 -37.9864 -37.9832 -28.9230 -28.9228
   -28.7969 -28.7967 -28.7817 -28.7816  -3.3983  -3.3981  -3.0905  -3.0903
     3.5096   3.5098   4.5012   4.5015   5.3419   5.3422   6.2652   6.2655
     7.2276   7.2281   7.5051   7.5055   8.8969   8.8970

     occupation numbers 
     1.0000   1.0000   1.0000   1.0000   1.0000   1.0000   1.0000   1.0000
     1.0000   1.0000   1.0000   1.0000   1.0000   1.0000   1.0000   1.0000
     1.0000   1.0000   1.0000   1.0000   1.0000   1.0000   1.0000   1.0000
     1.0000   1.0000   1.0000   1.0000   1.0000   1.0000   1.0000   1.0000
     1.0000   1.0000   1.0000   1.0000   1.0000   1.0000   1.0000   1.0000
     1.0000   1.0000   1.0000   1.0000   1.0000   1.0000

          k = 0.2500 0.4330 0.0000 (  6707 PWs)   bands (ev):

   -64.6012 -64.6009 -38.0451 -38.0432 -38.0413 -38.0393 -38.0384 -38.0366
   -38.0349 -38.0330 -38.0119 -38.0113 -38.0082 -38.0075 -38.0051 -38.0046
   -38.0017 -38.0011 -37.9936 -37.9902 -37.9864 -37.9832 -28.9010 -28.9008
   -28.8193 -28.8191 -28.7817 -28.7815  -3.4219  -3.4084  -3.0945  -3.0791
     3.9788   3.9944   4.5531   4.5748   5.3844   5.4564   6.0204   6.1468
     6.2634   6.3067   7.6219   7.6276   8.9313   8.9518

     occupation numbers 
     1.0000   1.0000   1.0000   1.0000   1.0000   1.0000   1.0000   1.0000
     1.0000   1.0000   1.0000   1.0000   1.0000   1.0000   1.0000   1.0000
     1.0000   1.0000   1.0000   1.0000   1.0000   1.0000   1.0000   1.0000
     1.0000   1.0000   1.0000   1.0000   1.0000   1.0000   1.0000   1.0000
     1.0000   1.0000   1.0000   1.0000   1.0000   1.0000   1.0000   1.0000
     1.0000   1.0000   1.0000   1.0000   1.0000   1.0000

          k = 0.2500 0.4330 0.0276 (  6714 PWs)   bands (ev):

   -64.6012 -64.6009 -38.0451 -38.0432 -38.0413 -38.0393 -38.0384 -38.0366
   -38.0349 -38.0330 -38.0119 -38.0113 -38.0082 -38.0075 -38.0051 -38.0046
   -38.0017 -38.0011 -37.9936 -37.9902 -37.9864 -37.9832 -28.9010 -28.9008
   -28.8193 -28.8191 -28.7817 -28.7816  -3.4214  -3.4090  -3.0939  -3.0797
     3.9795   3.9938   4.5538   4.5739   5.3864   5.4527   6.0262   6.1425
     6.2656   6.3053   7.6216   7.6269   8.9322   8.9511

     occupation numbers 
     1.0000   1.0000   1.0000   1.0000   1.0000   1.0000   1.0000   1.0000
     1.0000   1.0000   1.0000   1.0000   1.0000   1.0000   1.0000   1.0000
     1.0000   1.0000   1.0000   1.0000   1.0000   1.0000   1.0000   1.0000
     1.0000   1.0000   1.0000   1.0000   1.0000   1.0000   1.0000   1.0000
     1.0000   1.0000   1.0000   1.0000   1.0000   1.0000   1.0000   1.0000
     1.0000   1.0000   1.0000   1.0000   1.0000   1.0000

          k = 0.2500 0.4330 0.0552 (  6697 PWs)   bands (ev):

   -64.6012 -64.6009 -38.0451 -38.0432 -38.0413 -38.0393 -38.0384 -38.0366
   -38.0349 -38.0330 -38.0119 -38.0113 -38.0082 -38.0075 -38.0051 -38.0046
   -38.0017 -38.0011 -37.9936 -37.9902 -37.9864 -37.9832 -28.9010 -28.9008
   -28.8192 -28.8191 -28.7817 -28.7815  -3.4200  -3.4105  -3.0922  -3.0813
     3.9813   3.9923   4.5561   4.5715   5.3923   5.4426   6.0421   6.1304
     6.2714   6.3014   7.6210   7.6251   8.9345   8.9490

     occupation numbers 
     1.0000   1.0000   1.0000   1.0000   1.0000   1.0000   1.0000   1.0000
     1.0000   1.0000   1.0000   1.0000   1.0000   1.0000   1.0000   1.0000
     1.0000   1.0000   1.0000   1.0000   1.0000   1.0000   1.0000   1.0000
     1.0000   1.0000   1.0000   1.0000   1.0000   1.0000   1.0000   1.0000
     1.0000   1.0000   1.0000   1.0000   1.0000   1.0000   1.0000   1.0000
     1.0000   1.0000   1.0000   1.0000   1.0000   1.0000

          k = 0.2500 0.4330 0.0828 (  6706 PWs)   bands (ev):

   -64.6012 -64.6009 -38.0451 -38.0432 -38.0413 -38.0393 -38.0384 -38.0366
   -38.0349 -38.0330 -38.0119 -38.0113 -38.0082 -38.0075 -38.0051 -38.0046
   -38.0017 -38.0011 -37.9936 -37.9902 -37.9864 -37.9832 -28.9010 -28.9008
   -28.8193 -28.8191 -28.7817 -28.7816  -3.4179  -3.4127  -3.0896  -3.0837
     3.9839   3.9898   4.5595   4.5678   5.4019   5.4290   6.0645   6.1118
     6.2792   6.2952   7.6207   7.6230   8.9379   8.9458

     occupation numbers 
     1.0000   1.0000   1.0000   1.0000   1.0000   1.0000   1.0000   1.0000
     1.0000   1.0000   1.0000   1.0000   1.0000   1.0000   1.0000   1.0000
     1.0000   1.0000   1.0000   1.0000   1.0000   1.0000   1.0000   1.0000
     1.0000   1.0000   1.0000   1.0000   1.0000   1.0000   1.0000   1.0000
     1.0000   1.0000   1.0000   1.0000   1.0000   1.0000   1.0000   1.0000
     1.0000   1.0000   1.0000   1.0000   1.0000   1.0000

          k = 0.2500 0.4330-0.1104 (  6710 PWs)   bands (ev):

   -64.6012 -64.6009 -38.0451 -38.0432 -38.0413 -38.0393 -38.0384 -38.0366
   -38.0349 -38.0330 -38.0119 -38.0113 -38.0082 -38.0075 -38.0051 -38.0046
   -38.0017 -38.0011 -37.9936 -37.9902 -37.9864 -37.9832 -28.9010 -28.9008
   -28.8193 -28.8191 -28.7818 -28.7816  -3.4154  -3.4152  -3.0867  -3.0865
     3.9868   3.9870   4.5636   4.5637   5.4144   5.4148   6.0885   6.0893
     6.2870   6.2880   7.6213   7.6214   8.9418   8.9419

     occupation numbers 
     1.0000   1.0000   1.0000   1.0000   1.0000   1.0000   1.0000   1.0000
     1.0000   1.0000   1.0000   1.0000   1.0000   1.0000   1.0000   1.0000
     1.0000   1.0000   1.0000   1.0000   1.0000   1.0000   1.0000   1.0000
     1.0000   1.0000   1.0000   1.0000   1.0000   1.0000   1.0000   1.0000
     1.0000   1.0000   1.0000   1.0000   1.0000   1.0000   1.0000   1.0000
     1.0000   1.0000   1.0000   1.0000   1.0000   1.0000

          k = 0.2500 0.5774 0.0000 (  6672 PWs)   bands (ev):

   -64.6003 -64.6000 -38.0447 -38.0432 -38.0408 -38.0393 -38.0380 -38.0367
   -38.0345 -38.0330 -38.0120 -38.0114 -38.0083 -38.0076 -38.0051 -38.0047
   -38.0017 -38.0012 -37.9935 -37.9900 -37.9862 -37.9830 -28.9036 -28.9034
   -28.8429 -28.8427 -28.7772 -28.7770  -3.1578  -3.1528  -2.9678  -2.9627
     3.9483   3.9697   4.1880   4.2085   5.3643   5.4039   5.8922   5.9064
     6.1731   6.2344   7.2743   7.3188   9.2740   9.3222

     occupation numbers 
     1.0000   1.0000   1.0000   1.0000   1.0000   1.0000   1.0000   1.0000
     1.0000   1.0000   1.0000   1.0000   1.0000   1.0000   1.0000   1.0000
     1.0000   1.0000   1.0000   1.0000   1.0000   1.0000   1.0000   1.0000
     1.0000   1.0000   1.0000   1.0000   1.0000   1.0000   1.0000   1.0000
     1.0000   1.0000   1.0000   1.0000   1.0000   1.0000   1.0000   1.0000
     1.0000   1.0000   1.0000   1.0000   1.0000   1.0000

          k = 0.2500 0.5774 0.0276 (  6683 PWs)   bands (ev):

   -64.6003 -64.6000 -38.0447 -38.0432 -38.0408 -38.0393 -38.0380 -38.0367
   -38.0345 -38.0330 -38.0120 -38.0114 -38.0083 -38.0076 -38.0051 -38.0047
   -38.0017 -38.0012 -37.9935 -37.9900 -37.9862 -37.9830 -28.9036 -28.9034
   -28.8429 -28.8427 -28.7772 -28.7770  -3.1577  -3.1530  -2.9676  -2.9629
     3.9491   3.9689   4.1888   4.2077   5.3656   5.4023   5.8913   5.9048
     6.1775   6.2339   7.2752   7.3164   9.2758   9.3203

     occupation numbers 
     1.0000   1.0000   1.0000   1.0000   1.0000   1.0000   1.0000   1.0000
     1.0000   1.0000   1.0000   1.0000   1.0000   1.0000   1.0000   1.0000
     1.0000   1.0000   1.0000   1.0000   1.0000   1.0000   1.0000   1.0000
     1.0000   1.0000   1.0000   1.0000   1.0000   1.0000   1.0000   1.0000
     1.0000   1.0000   1.0000   1.0000   1.0000   1.0000   1.0000   1.0000
     1.0000   1.0000   1.0000   1.0000   1.0000   1.0000

          k = 0.2500 0.5774 0.0552 (  6683 PWs)   bands (ev):

   -64.6003 -64.6000 -38.0447 -38.0432 -38.0408 -38.0393 -38.0380 -38.0367
   -38.0345 -38.0330 -38.0120 -38.0114 -38.0083 -38.0076 -38.0051 -38.0047
   -38.0017 -38.0012 -37.9935 -37.9900 -37.9862 -37.9830 -28.9036 -28.9034
   -28.8429 -28.8427 -28.7772 -28.7770  -3.1571  -3.1536  -2.9671  -2.9634
     3.9514   3.9666   4.1910   4.2055   5.3696   5.3977   5.8898   5.9006
     6.1888   6.2316   7.2783   7.3099   9.2810   9.3150

     occupation numbers 
     1.0000   1.0000   1.0000   1.0000   1.0000   1.0000   1.0000   1.0000
     1.0000   1.0000   1.0000   1.0000   1.0000   1.0000   1.0000   1.0000
     1.0000   1.0000   1.0000   1.0000   1.0000   1.0000   1.0000   1.0000
     1.0000   1.0000   1.0000   1.0000   1.0000   1.0000   1.0000   1.0000
     1.0000   1.0000   1.0000   1.0000   1.0000   1.0000   1.0000   1.0000
     1.0000   1.0000   1.0000   1.0000   1.0000   1.0000

          k = 0.2500 0.5774 0.0828 (  6681 PWs)   bands (ev):

   -64.6003 -64.6000 -38.0447 -38.0432 -38.0408 -38.0393 -38.0380 -38.0367
   -38.0345 -38.0330 -38.0120 -38.0114 -38.0083 -38.0076 -38.0051 -38.0047
   -38.0017 -38.0012 -37.9935 -37.9900 -37.9862 -37.9830 -28.9036 -28.9034
   -28.8429 -28.8427 -28.7772 -28.7770  -3.1563  -3.1544  -2.9662  -2.9642
     3.9549   3.9631   4.1943   4.2022   5.3756   5.3909   5.8895   5.8956
     6.2032   6.2261   7.2838   7.3010   9.2888   9.3072

     occupation numbers 
     1.0000   1.0000   1.0000   1.0000   1.0000   1.0000   1.0000   1.0000
     1.0000   1.0000   1.0000   1.0000   1.0000   1.0000   1.0000   1.0000
     1.0000   1.0000   1.0000   1.0000   1.0000   1.0000   1.0000   1.0000
     1.0000   1.0000   1.0000   1.0000   1.0000   1.0000   1.0000   1.0000
     1.0000   1.0000   1.0000   1.0000   1.0000   1.0000   1.0000   1.0000
     1.0000   1.0000   1.0000   1.0000   1.0000   1.0000

          k = 0.2500 0.5774-0.1104 (  6680 PWs)   bands (ev):

   -64.6003 -64.6000 -38.0447 -38.0432 -38.0408 -38.0393 -38.0380 -38.0367
   -38.0345 -38.0330 -38.0120 -38.0114 -38.0083 -38.0076 -38.0051 -38.0047
   -38.0017 -38.0012 -37.9935 -37.9900 -37.9862 -37.9830 -28.9036 -28.9034
   -28.8429 -28.8427 -28.7772 -28.7770  -3.1554  -3.1553  -2.9653  -2.9652
     3.9589   3.9592   4.1982   4.1983   5.3829   5.3833   5.8913   5.8915
     6.2164   6.2165   7.2917   7.2917   9.2979   9.2980

     occupation numbers 
     1.0000   1.0000   1.0000   1.0000   1.0000   1.0000   1.0000   1.0000
     1.0000   1.0000   1.0000   1.0000   1.0000   1.0000   1.0000   1.0000
     1.0000   1.0000   1.0000   1.0000   1.0000   1.0000   1.0000   1.0000
     1.0000   1.0000   1.0000   1.0000   1.0000   1.0000   1.0000   1.0000
     1.0000   1.0000   1.0000   1.0000   1.0000   1.0000   1.0000   1.0000
     1.0000   1.0000   1.0000   1.0000   1.0000   1.0000

     highest occupied level (ev):     9.5106

     Writing output data file ./tmp/WSe2.save/

     init_run     :      2.31s CPU      2.52s WALL (       1 calls)
     electrons    :    372.99s CPU    378.35s WALL (       1 calls)

     Called by init_run:
     wfcinit      :      0.00s CPU      0.00s WALL (       1 calls)
     wfcinit:atom :      0.07s CPU      0.09s WALL (      50 calls)
     wfcinit:wfcr :     13.71s CPU     13.96s WALL (      50 calls)
     potinit      :      0.55s CPU      0.60s WALL (       1 calls)
     hinit0       :      1.20s CPU      1.22s WALL (       1 calls)
     init_xdm     :      0.00s CPU      0.00s WALL (       1 calls)

     Called by electrons:
     c_bands      :    372.99s CPU    378.32s WALL (       1 calls)
     v_of_rho     :      0.11s CPU      0.15s WALL (       1 calls)
     v_h          :      0.01s CPU      0.01s WALL (       1 calls)
     v_xc         :      0.10s CPU      0.13s WALL (       1 calls)
     newd         :      0.49s CPU      0.62s WALL (       1 calls)
     PAW_pot      :      0.41s CPU      0.41s WALL (       1 calls)

     Called by c_bands:
     init_us_2    :      0.07s CPU      0.10s WALL (      50 calls)
     cegterg      :    358.09s CPU    363.04s WALL (     100 calls)

     Called by sum_band:

     Called by *egterg:
     cdiaghg      :     11.26s CPU     11.39s WALL (    1679 calls)
     cegterg:over :     62.87s CPU     63.10s WALL (    1629 calls)
     cegterg:upda :     26.75s CPU     26.86s WALL (    1629 calls)
     cegterg:last :     73.54s CPU     73.78s WALL (    1095 calls)
     cdiaghg:chol :      0.66s CPU      0.67s WALL (    1679 calls)
     cdiaghg:inve :      0.07s CPU      0.07s WALL (    1679 calls)
     cdiaghg:para :      3.31s CPU      3.33s WALL (    3358 calls)
     h_psi        :    149.69s CPU    154.07s WALL (    1779 calls)
     s_psi        :     36.94s CPU     37.03s WALL (    1779 calls)
     g_psi        :      1.64s CPU      1.65s WALL (    1629 calls)

     Called by h_psi:
     h_psi:calbec :     43.89s CPU     44.52s WALL (    1779 calls)
     vloc_psi     :     67.63s CPU     71.29s WALL (    1779 calls)
     add_vuspsi   :     37.39s CPU     37.50s WALL (    1779 calls)

     General routines
     calbec       :     43.88s CPU     44.51s WALL (    1779 calls)
     fft          :      0.10s CPU      0.11s WALL (      13 calls)
     ffts         :      0.00s CPU      0.00s WALL (       1 calls)
     fftw         :     59.19s CPU     62.41s WALL (  110788 calls)
     interpolate  :      0.01s CPU      0.01s WALL (       1 calls)
     davcio       :      0.09s CPU      0.13s WALL (     100 calls)

     Parallel routines
     fft_scatt_xy :      8.14s CPU      8.59s WALL (  110802 calls)
     fft_scatt_yz :     19.94s CPU     21.09s WALL (  110802 calls)

     PAW routines
     PAW_pot      :      0.41s CPU      0.41s WALL (       1 calls)

     PWSCF        :   6m15.88s CPU   6m22.15s WALL


   This run was terminated on:  15:19:24   6Sep2024            

=------------------------------------------------------------------------------=
   JOB DONE.
=------------------------------------------------------------------------------=
