
     Program PWSCF v.6.7MaX starts on  7Sep2024 at 17:12:28 

     This program is part of the open-source Quantum ESPRESSO suite
     for quantum simulation of materials; please cite
         "P. Giannozzi et al., J. Phys.:Condens. Matter 21 395502 (2009);
         "P. Giannozzi et al., J. Phys.:Condens. Matter 29 465901 (2017);
          URL http://www.quantum-espresso.org", 
     in publications or presentations arising from this work. More details at
     http://www.quantum-espresso.org/quote

     Parallel version (MPI), running on     4 processors

     MPI processes distributed on     1 nodes
     R & G space division:  proc/nbgrp/npool/nimage =       4
     Reading input from WSe2_SCF3.inp

     Current dimensions of program PWSCF are:
     Max number of different atomic species (ntypx) = 10
     Max number of k-points (npk) =  40000
     Max angular momentum in pseudopotentials (lmaxx) =  3
     file W.pbe-spn-kjpaw_psl.1.0.0.UPF: wavefunction(s)  6S 5P 5D renormalized
     file Se.pbe-dn-kjpaw_psl.1.0.0.UPF: wavefunction(s)  4S 4P 3D renormalized

     IMPORTANT: XC functional enforced from input :
     Exchange-correlation= PBE
                           (   1   4   3   4   0   0   0)
     Any further DFT definition will be discarded
     Please, verify this is what you really want


     Subspace diagonalization in iterative solution of the eigenvalue problem:
     one sub-group per band group will be used
     scalapack distributed-memory algorithm (size of sub-group:  2*  2 procs)


     Parallelization info
     --------------------
     sticks:   dense  smooth     PW     G-vecs:    dense   smooth      PW
     Min         321     148     42                42597    13420    2115
     Max         322     149     43                42620    13435    2122
     Sum        1285     595    169               170417    53709    8473



     bravais-lattice index     =            4
     lattice parameter (alat)  =       6.2873  a.u.
     unit-cell volume          =     974.8449 (a.u.)^3
     number of atoms/cell      =            6
     number of atomic types    =            2
     number of electrons       =        92.00
     number of Kohn-Sham states=           46
     kinetic-energy cutoff     =      55.0000  Ry
     charge density cutoff     =     475.0000  Ry
     scf convergence threshold =      1.0E-09
     mixing beta               =       0.5000
     number of iterations used =            8  plain     mixing
     Exchange-correlation= PBE
                           (   1   4   3   4   0   0   0)

     celldm(1)=   6.287251  celldm(2)=   0.000000  celldm(3)=   4.529210
     celldm(4)=   0.000000  celldm(5)=   0.000000  celldm(6)=   0.000000

     crystal axes: (cart. coord. in units of alat)
               a(1) = (   1.000000   0.000000   0.000000 )  
               a(2) = (  -0.500000   0.866025   0.000000 )  
               a(3) = (   0.000000   0.000000   4.529210 )  

     reciprocal axes: (cart. coord. in units 2 pi/alat)
               b(1) = (  1.000000  0.577350 -0.000000 )  
               b(2) = (  0.000000  1.154701  0.000000 )  
               b(3) = (  0.000000 -0.000000  0.220789 )  


     PseudoPot. # 1 for W  read from file:
     /home/alessandro_rotondi/q-e/pseudo/W.pbe-spn-kjpaw_psl.1.0.0.UPF
     MD5 check sum: 03c3df5b60893f488392c7401945500a
     Pseudo is Projector augmented-wave + core cor, Zval = 14.0
     Generated using &quot;atomic&quot; code by A. Dal Corso  v.6.2.2
     Shape of augmentation charge: PSQ
     Using radial grid of 1273 points,  6 beta functions with: 
                l(1) =   0
                l(2) =   0
                l(3) =   1
                l(4) =   1
                l(5) =   2
                l(6) =   2
     Q(r) pseudized with 0 coefficients 


     PseudoPot. # 2 for Se read from file:
     /home/alessandro_rotondi/q-e/pseudo/Se.pbe-dn-kjpaw_psl.1.0.0.UPF
     MD5 check sum: ac240dd2bae32a30e0bf3a38df9c8785
     Pseudo is Projector augmented-wave + core cor, Zval = 16.0
     Generated using &quot;atomic&quot; code by A. Dal Corso  v.6.3
     Shape of augmentation charge: PSQ
     Using radial grid of 1211 points,  6 beta functions with: 
                l(1) =   0
                l(2) =   0
                l(3) =   1
                l(4) =   1
                l(5) =   2
                l(6) =   2
     Q(r) pseudized with 0 coefficients 


     atomic species   valence    mass     pseudopotential
        W             14.00   183.84000     W ( 1.00)
        Se            16.00    78.96000     Se( 1.00)

     24 Sym. Ops., with inversion, found (12 have fractional translation)


                                    s                        frac. trans.

      isym =  1     identity                                     

 cryst.   s( 1) = (     1          0          0      )
                  (     0          1          0      )
                  (     0          0          1      )

 cart.    s( 1) = (  1.0000000  0.0000000  0.0000000 )
                  (  0.0000000  1.0000000  0.0000000 )
                  (  0.0000000  0.0000000  1.0000000 )


      isym =  2     180 deg rotation - cart. axis [0,0,1]        

 cryst.   s( 2) = (    -1          0          0      )    f =(  0.0000000 )
                  (     0         -1          0      )       (  0.0000000 )
                  (     0          0          1      )       (  0.4999990 )

 cart.    s( 2) = ( -1.0000000  0.0000000  0.0000000 )    f =(  0.0000000 )
                  (  0.0000000 -1.0000000  0.0000000 )       (  0.0000000 )
                  (  0.0000000  0.0000000  1.0000000 )       (  2.2646007 )


      isym =  3     180 deg rotation - cart. axis [0,1,0]        

 cryst.   s( 3) = (    -1          0          0      )    f =(  0.0000010 )
                  (     1          1          0      )       (  0.0000000 )
                  (     0          0         -1      )       ( -0.4999980 )

 cart.    s( 3) = ( -1.0000000  0.0000000  0.0000000 )    f =(  0.0000010 )
                  (  0.0000000  1.0000000  0.0000000 )       (  0.0000000 )
                  (  0.0000000  0.0000000 -1.0000000 )       ( -2.2645961 )


      isym =  4     180 deg rotation - cart. axis [1,0,0]        

 cryst.   s( 4) = (     1          0          0      )
                  (    -1         -1          0      )
                  (     0          0         -1      )

 cart.    s( 4) = (  1.0000000  0.0000000  0.0000000 )
                  (  0.0000000 -1.0000000  0.0000000 )
                  (  0.0000000  0.0000000 -1.0000000 )


      isym =  5      60 deg rotation - cryst. axis [0,0,1]       

 cryst.   s( 5) = (     1          1          0      )    f =(  0.0000010 )
                  (    -1          0          0      )       (  0.0000000 )
                  (     0          0          1      )       (  0.4999990 )

 cart.    s( 5) = (  0.5000000 -0.8660254  0.0000000 )    f =(  0.0000010 )
                  (  0.8660254  0.5000000  0.0000000 )       (  0.0000000 )
                  (  0.0000000  0.0000000  1.0000000 )       (  2.2646007 )


      isym =  6      60 deg rotation - cryst. axis [0,0,-1]      

 cryst.   s( 6) = (     0         -1          0      )    f =(  0.0000000 )
                  (     1          1          0      )       ( -0.0000010 )
                  (     0          0          1      )       (  0.4999990 )

 cart.    s( 6) = (  0.5000000  0.8660254  0.0000000 )    f =(  0.0000005 )
                  ( -0.8660254  0.5000000  0.0000000 )       ( -0.0000009 )
                  (  0.0000000  0.0000000  1.0000000 )       (  2.2646007 )


      isym =  7     120 deg rotation - cryst. axis [0,0,1]       

 cryst.   s( 7) = (     0          1          0      )
                  (    -1         -1          0      )
                  (     0          0          1      )

 cart.    s( 7) = ( -0.5000000 -0.8660254  0.0000000 )
                  (  0.8660254 -0.5000000  0.0000000 )
                  (  0.0000000  0.0000000  1.0000000 )


      isym =  8     120 deg rotation - cryst. axis [0,0,-1]      

 cryst.   s( 8) = (    -1         -1          0      )
                  (     1          0          0      )
                  (     0          0          1      )

 cart.    s( 8) = ( -0.5000000  0.8660254  0.0000000 )
                  ( -0.8660254 -0.5000000  0.0000000 )
                  (  0.0000000  0.0000000  1.0000000 )


      isym =  9     180 deg rotation - cryst. axis [1,-1,0]      

 cryst.   s( 9) = (     0         -1          0      )    f =(  0.0000000 )
                  (    -1          0          0      )       (  0.0000000 )
                  (     0          0         -1      )       ( -0.4999980 )

 cart.    s( 9) = (  0.5000000 -0.8660254  0.0000000 )    f =(  0.0000000 )
                  ( -0.8660254 -0.5000000  0.0000000 )       (  0.0000000 )
                  (  0.0000000  0.0000000 -1.0000000 )       ( -2.2645961 )


      isym = 10     180 deg rotation - cryst. axis [2,1,0]       

 cryst.   s(10) = (     1          1          0      )    f =(  0.0000000 )
                  (     0         -1          0      )       ( -0.0000010 )
                  (     0          0         -1      )       ( -0.4999980 )

 cart.    s(10) = (  0.5000000  0.8660254  0.0000000 )    f =(  0.0000005 )
                  (  0.8660254 -0.5000000  0.0000000 )       ( -0.0000009 )
                  (  0.0000000  0.0000000 -1.0000000 )       ( -2.2645961 )


      isym = 11     180 deg rotation - cryst. axis [0,1,0]       

 cryst.   s(11) = (    -1         -1          0      )
                  (     0          1          0      )
                  (     0          0         -1      )

 cart.    s(11) = ( -0.5000000 -0.8660254  0.0000000 )
                  ( -0.8660254  0.5000000  0.0000000 )
                  (  0.0000000  0.0000000 -1.0000000 )


      isym = 12     180 deg rotation - cryst. axis [1,1,0]       

 cryst.   s(12) = (     0          1          0      )
                  (     1          0          0      )
                  (     0          0         -1      )

 cart.    s(12) = ( -0.5000000  0.8660254  0.0000000 )
                  (  0.8660254  0.5000000  0.0000000 )
                  (  0.0000000  0.0000000 -1.0000000 )


      isym = 13     inversion                                    

 cryst.   s(13) = (    -1          0          0      )
                  (     0         -1          0      )
                  (     0          0         -1      )

 cart.    s(13) = ( -1.0000000  0.0000000  0.0000000 )
                  (  0.0000000 -1.0000000  0.0000000 )
                  (  0.0000000  0.0000000 -1.0000000 )


      isym = 14     inv. 180 deg rotation - cart. axis [0,0,1]   

 cryst.   s(14) = (     1          0          0      )    f =(  0.0000000 )
                  (     0          1          0      )       (  0.0000000 )
                  (     0          0         -1      )       ( -0.4999980 )

 cart.    s(14) = (  1.0000000  0.0000000  0.0000000 )    f =(  0.0000000 )
                  (  0.0000000  1.0000000  0.0000000 )       (  0.0000000 )
                  (  0.0000000  0.0000000 -1.0000000 )       ( -2.2645961 )


      isym = 15     inv. 180 deg rotation - cart. axis [0,1,0]   

 cryst.   s(15) = (     1          0          0      )    f =(  0.0000010 )
                  (    -1         -1          0      )       (  0.0000000 )
                  (     0          0          1      )       (  0.4999990 )

 cart.    s(15) = (  1.0000000  0.0000000  0.0000000 )    f =(  0.0000010 )
                  (  0.0000000 -1.0000000  0.0000000 )       (  0.0000000 )
                  (  0.0000000  0.0000000  1.0000000 )       (  2.2646007 )


      isym = 16     inv. 180 deg rotation - cart. axis [1,0,0]   

 cryst.   s(16) = (    -1          0          0      )
                  (     1          1          0      )
                  (     0          0          1      )

 cart.    s(16) = ( -1.0000000  0.0000000  0.0000000 )
                  (  0.0000000  1.0000000  0.0000000 )
                  (  0.0000000  0.0000000  1.0000000 )


      isym = 17     inv.  60 deg rotation - cryst. axis [0,0,1]  

 cryst.   s(17) = (    -1         -1          0      )    f =(  0.0000010 )
                  (     1          0          0      )       (  0.0000000 )
                  (     0          0         -1      )       ( -0.4999980 )

 cart.    s(17) = ( -0.5000000  0.8660254  0.0000000 )    f =(  0.0000010 )
                  ( -0.8660254 -0.5000000  0.0000000 )       (  0.0000000 )
                  (  0.0000000  0.0000000 -1.0000000 )       ( -2.2645961 )


      isym = 18     inv.  60 deg rotation - cryst. axis [0,0,-1] 

 cryst.   s(18) = (     0          1          0      )    f =(  0.0000000 )
                  (    -1         -1          0      )       ( -0.0000010 )
                  (     0          0         -1      )       ( -0.4999980 )

 cart.    s(18) = ( -0.5000000 -0.8660254  0.0000000 )    f =(  0.0000005 )
                  (  0.8660254 -0.5000000  0.0000000 )       ( -0.0000009 )
                  (  0.0000000  0.0000000 -1.0000000 )       ( -2.2645961 )


      isym = 19     inv. 120 deg rotation - cryst. axis [0,0,1]  

 cryst.   s(19) = (     0         -1          0      )
                  (     1          1          0      )
                  (     0          0         -1      )

 cart.    s(19) = (  0.5000000  0.8660254  0.0000000 )
                  ( -0.8660254  0.5000000  0.0000000 )
                  (  0.0000000  0.0000000 -1.0000000 )


      isym = 20     inv. 120 deg rotation - cryst. axis [0,0,-1] 

 cryst.   s(20) = (     1          1          0      )
                  (    -1          0          0      )
                  (     0          0         -1      )

 cart.    s(20) = (  0.5000000 -0.8660254  0.0000000 )
                  (  0.8660254  0.5000000  0.0000000 )
                  (  0.0000000  0.0000000 -1.0000000 )


      isym = 21     inv. 180 deg rotation - cryst. axis [1,-1,0] 

 cryst.   s(21) = (     0          1          0      )    f =(  0.0000000 )
                  (     1          0          0      )       (  0.0000000 )
                  (     0          0          1      )       (  0.4999990 )

 cart.    s(21) = ( -0.5000000  0.8660254  0.0000000 )    f =( -0.0000000 )
                  (  0.8660254  0.5000000  0.0000000 )       (  0.0000000 )
                  (  0.0000000  0.0000000  1.0000000 )       (  2.2646007 )


      isym = 22     inv. 180 deg rotation - cryst. axis [2,1,0]  

 cryst.   s(22) = (    -1         -1          0      )    f =(  0.0000000 )
                  (     0          1          0      )       ( -0.0000010 )
                  (     0          0          1      )       (  0.4999990 )

 cart.    s(22) = ( -0.5000000 -0.8660254  0.0000000 )    f =(  0.0000005 )
                  ( -0.8660254  0.5000000  0.0000000 )       ( -0.0000009 )
                  (  0.0000000  0.0000000  1.0000000 )       (  2.2646007 )


      isym = 23     inv. 180 deg rotation - cryst. axis [0,1,0]  

 cryst.   s(23) = (     1          1          0      )
                  (     0         -1          0      )
                  (     0          0          1      )

 cart.    s(23) = (  0.5000000  0.8660254  0.0000000 )
                  (  0.8660254 -0.5000000  0.0000000 )
                  (  0.0000000  0.0000000  1.0000000 )


      isym = 24     inv. 180 deg rotation - cryst. axis [1,1,0]  

 cryst.   s(24) = (     0         -1          0      )
                  (    -1          0          0      )
                  (     0          0          1      )

 cart.    s(24) = (  0.5000000 -0.8660254  0.0000000 )
                  ( -0.8660254 -0.5000000  0.0000000 )
                  (  0.0000000  0.0000000  1.0000000 )


     point group D_6h(6/mmm)
     there are 12 classes
     the character table:

       E     2C6   2C3   C2    3C2'  3C2'' i     2S3   2S6   s_h   3s_d  3s_v 
A_1g   1.00  1.00  1.00  1.00  1.00  1.00  1.00  1.00  1.00  1.00  1.00  1.00
A_2g   1.00  1.00  1.00  1.00 -1.00 -1.00  1.00  1.00  1.00  1.00 -1.00 -1.00
B_1g   1.00 -1.00  1.00 -1.00  1.00 -1.00  1.00 -1.00  1.00 -1.00  1.00 -1.00
B_2g   1.00 -1.00  1.00 -1.00 -1.00  1.00  1.00 -1.00  1.00 -1.00 -1.00  1.00
E_1g   2.00  1.00 -1.00 -2.00  0.00  0.00  2.00  1.00 -1.00 -2.00  0.00  0.00
E_2g   2.00 -1.00 -1.00  2.00  0.00  0.00  2.00 -1.00 -1.00  2.00  0.00  0.00
A_1u   1.00  1.00  1.00  1.00  1.00  1.00 -1.00 -1.00 -1.00 -1.00 -1.00 -1.00
A_2u   1.00  1.00  1.00  1.00 -1.00 -1.00 -1.00 -1.00 -1.00 -1.00  1.00  1.00
B_1u   1.00 -1.00  1.00 -1.00  1.00 -1.00 -1.00  1.00 -1.00  1.00 -1.00  1.00
B_2u   1.00 -1.00  1.00 -1.00 -1.00  1.00 -1.00  1.00 -1.00  1.00  1.00 -1.00
E_1u   2.00  1.00 -1.00 -2.00  0.00  0.00 -2.00 -1.00  1.00  2.00  0.00  0.00
E_2u   2.00 -1.00 -1.00  2.00  0.00  0.00 -2.00  1.00  1.00 -2.00  0.00  0.00

     the symmetry operations in each class and the name of the first element:

     E        1
          identity                                               
     2C6      5    6
           60 deg rotation - cryst. axis [0,0,1]                 
     2C3      7    8
          120 deg rotation - cryst. axis [0,0,1]                 
     C2       2
          180 deg rotation - cart. axis [0,0,1]                  
     3C2'     4   12   11
          180 deg rotation - cart. axis [1,0,0]                  
     3C2''    3    9   10
          180 deg rotation - cart. axis [0,1,0]                  
     i       13
          inversion                                              
     2S3     17   18
          inv.  60 deg rotation - cryst. axis [0,0,1]            
     2S6     19   20
          inv. 120 deg rotation - cryst. axis [0,0,1]            
     s_h     14
          inv. 180 deg rotation - cart. axis [0,0,1]             
     3s_d    16   24   23
          inv. 180 deg rotation - cart. axis [1,0,0]             
     3s_v    15   21   22
          inv. 180 deg rotation - cart. axis [0,1,0]             

   Cartesian axes

     site n.     atom                  positions (alat units)
         1           W   tau(   1) = (  -0.0000005   0.5773506   1.1322981  )
         2           W   tau(   2) = (   0.5000005   0.2886748   3.3968987  )
         3           Se  tau(   3) = (   0.5000005   0.2886748   1.6286425  )
         4           Se  tau(   4) = (  -0.0000005   0.5773506   3.8932386  )
         5           Se  tau(   5) = (   0.5000005   0.2886748   0.6359582  )
         6           Se  tau(   6) = (  -0.0000005   0.5773506   2.9005543  )

   Crystallographic axes

     site n.     atom                  positions (cryst. coord.)
         1           W   tau(   1) = (  0.3333330  0.6666670  0.2499990  )
         2           W   tau(   2) = (  0.6666670  0.3333330  0.7499980  )
         3           Se  tau(   3) = (  0.6666670  0.3333330  0.3595864  )
         4           Se  tau(   4) = (  0.3333330  0.6666670  0.8595844  )
         5           Se  tau(   5) = (  0.6666670  0.3333330  0.1404126  )
         6           Se  tau(   6) = (  0.3333330  0.6666670  0.6404106  )

     number of k points=   270
                       cart. coord. in units 2pi/alat
        k(    1) = (   0.0000000   0.0000000   0.0000000), wk =   0.0004883
        k(    2) = (   0.0000000   0.0000000   0.0137993), wk =   0.0009766
        k(    3) = (   0.0000000   0.0000000   0.0275986), wk =   0.0009766
        k(    4) = (   0.0000000   0.0000000   0.0413979), wk =   0.0009766
        k(    5) = (   0.0000000   0.0000000   0.0551973), wk =   0.0009766
        k(    6) = (   0.0000000   0.0000000   0.0689966), wk =   0.0009766
        k(    7) = (   0.0000000   0.0000000   0.0827959), wk =   0.0009766
        k(    8) = (   0.0000000   0.0000000   0.0965952), wk =   0.0009766
        k(    9) = (   0.0000000   0.0000000  -0.1103945), wk =   0.0004883
        k(   10) = (   0.0000000   0.0721688   0.0000000), wk =   0.0029297
        k(   11) = (   0.0000000   0.0721688   0.0137993), wk =   0.0058594
        k(   12) = (   0.0000000   0.0721688   0.0275986), wk =   0.0058594
        k(   13) = (   0.0000000   0.0721688   0.0413979), wk =   0.0058594
        k(   14) = (   0.0000000   0.0721688   0.0551973), wk =   0.0058594
        k(   15) = (   0.0000000   0.0721688   0.0689966), wk =   0.0058594
        k(   16) = (   0.0000000   0.0721688   0.0827959), wk =   0.0058594
        k(   17) = (   0.0000000   0.0721688   0.0965952), wk =   0.0058594
        k(   18) = (   0.0000000   0.0721688  -0.1103945), wk =   0.0029297
        k(   19) = (   0.0000000   0.1443376   0.0000000), wk =   0.0029297
        k(   20) = (   0.0000000   0.1443376   0.0137993), wk =   0.0058594
        k(   21) = (   0.0000000   0.1443376   0.0275986), wk =   0.0058594
        k(   22) = (   0.0000000   0.1443376   0.0413979), wk =   0.0058594
        k(   23) = (   0.0000000   0.1443376   0.0551973), wk =   0.0058594
        k(   24) = (   0.0000000   0.1443376   0.0689966), wk =   0.0058594
        k(   25) = (   0.0000000   0.1443376   0.0827959), wk =   0.0058594
        k(   26) = (   0.0000000   0.1443376   0.0965952), wk =   0.0058594
        k(   27) = (   0.0000000   0.1443376  -0.1103945), wk =   0.0029297
        k(   28) = (   0.0000000   0.2165064   0.0000000), wk =   0.0029297
        k(   29) = (   0.0000000   0.2165064   0.0137993), wk =   0.0058594
        k(   30) = (   0.0000000   0.2165064   0.0275986), wk =   0.0058594
        k(   31) = (   0.0000000   0.2165064   0.0413979), wk =   0.0058594
        k(   32) = (   0.0000000   0.2165064   0.0551973), wk =   0.0058594
        k(   33) = (   0.0000000   0.2165064   0.0689966), wk =   0.0058594
        k(   34) = (   0.0000000   0.2165064   0.0827959), wk =   0.0058594
        k(   35) = (   0.0000000   0.2165064   0.0965952), wk =   0.0058594
        k(   36) = (   0.0000000   0.2165064  -0.1103945), wk =   0.0029297
        k(   37) = (   0.0000000   0.2886751   0.0000000), wk =   0.0029297
        k(   38) = (   0.0000000   0.2886751   0.0137993), wk =   0.0058594
        k(   39) = (   0.0000000   0.2886751   0.0275986), wk =   0.0058594
        k(   40) = (   0.0000000   0.2886751   0.0413979), wk =   0.0058594
        k(   41) = (   0.0000000   0.2886751   0.0551973), wk =   0.0058594
        k(   42) = (   0.0000000   0.2886751   0.0689966), wk =   0.0058594
        k(   43) = (   0.0000000   0.2886751   0.0827959), wk =   0.0058594
        k(   44) = (   0.0000000   0.2886751   0.0965952), wk =   0.0058594
        k(   45) = (   0.0000000   0.2886751  -0.1103945), wk =   0.0029297
        k(   46) = (   0.0000000   0.3608439   0.0000000), wk =   0.0029297
        k(   47) = (   0.0000000   0.3608439   0.0137993), wk =   0.0058594
        k(   48) = (   0.0000000   0.3608439   0.0275986), wk =   0.0058594
        k(   49) = (   0.0000000   0.3608439   0.0413979), wk =   0.0058594
        k(   50) = (   0.0000000   0.3608439   0.0551973), wk =   0.0058594
        k(   51) = (   0.0000000   0.3608439   0.0689966), wk =   0.0058594
        k(   52) = (   0.0000000   0.3608439   0.0827959), wk =   0.0058594
        k(   53) = (   0.0000000   0.3608439   0.0965952), wk =   0.0058594
        k(   54) = (   0.0000000   0.3608439  -0.1103945), wk =   0.0029297
        k(   55) = (   0.0000000   0.4330127   0.0000000), wk =   0.0029297
        k(   56) = (   0.0000000   0.4330127   0.0137993), wk =   0.0058594
        k(   57) = (   0.0000000   0.4330127   0.0275986), wk =   0.0058594
        k(   58) = (   0.0000000   0.4330127   0.0413979), wk =   0.0058594
        k(   59) = (   0.0000000   0.4330127   0.0551973), wk =   0.0058594
        k(   60) = (   0.0000000   0.4330127   0.0689966), wk =   0.0058594
        k(   61) = (   0.0000000   0.4330127   0.0827959), wk =   0.0058594
        k(   62) = (   0.0000000   0.4330127   0.0965952), wk =   0.0058594
        k(   63) = (   0.0000000   0.4330127  -0.1103945), wk =   0.0029297
        k(   64) = (   0.0000000   0.5051815   0.0000000), wk =   0.0029297
        k(   65) = (   0.0000000   0.5051815   0.0137993), wk =   0.0058594
        k(   66) = (   0.0000000   0.5051815   0.0275986), wk =   0.0058594
        k(   67) = (   0.0000000   0.5051815   0.0413979), wk =   0.0058594
        k(   68) = (   0.0000000   0.5051815   0.0551973), wk =   0.0058594
        k(   69) = (   0.0000000   0.5051815   0.0689966), wk =   0.0058594
        k(   70) = (   0.0000000   0.5051815   0.0827959), wk =   0.0058594
        k(   71) = (   0.0000000   0.5051815   0.0965952), wk =   0.0058594
        k(   72) = (   0.0000000   0.5051815  -0.1103945), wk =   0.0029297
        k(   73) = (   0.0000000  -0.5773503   0.0000000), wk =   0.0014648
        k(   74) = (   0.0000000  -0.5773503   0.0137993), wk =   0.0029297
        k(   75) = (   0.0000000  -0.5773503   0.0275986), wk =   0.0029297
        k(   76) = (   0.0000000  -0.5773503   0.0413979), wk =   0.0029297
        k(   77) = (   0.0000000  -0.5773503   0.0551973), wk =   0.0029297
        k(   78) = (   0.0000000  -0.5773503   0.0689966), wk =   0.0029297
        k(   79) = (   0.0000000  -0.5773503   0.0827959), wk =   0.0029297
        k(   80) = (   0.0000000  -0.5773503   0.0965952), wk =   0.0029297
        k(   81) = (   0.0000000  -0.5773503  -0.1103945), wk =   0.0014648
        k(   82) = (   0.0625000   0.1082532   0.0000000), wk =   0.0029297
        k(   83) = (   0.0625000   0.1082532   0.0137993), wk =   0.0058594
        k(   84) = (   0.0625000   0.1082532   0.0275986), wk =   0.0058594
        k(   85) = (   0.0625000   0.1082532   0.0413979), wk =   0.0058594
        k(   86) = (   0.0625000   0.1082532   0.0551973), wk =   0.0058594
        k(   87) = (   0.0625000   0.1082532   0.0689966), wk =   0.0058594
        k(   88) = (   0.0625000   0.1082532   0.0827959), wk =   0.0058594
        k(   89) = (   0.0625000   0.1082532   0.0965952), wk =   0.0058594
        k(   90) = (   0.0625000   0.1082532  -0.1103945), wk =   0.0029297
        k(   91) = (   0.0625000   0.1804220   0.0000000), wk =   0.0058594
        k(   92) = (   0.0625000   0.1804220   0.0137993), wk =   0.0117188
        k(   93) = (   0.0625000   0.1804220   0.0275986), wk =   0.0117188
        k(   94) = (   0.0625000   0.1804220   0.0413979), wk =   0.0117188
        k(   95) = (   0.0625000   0.1804220   0.0551973), wk =   0.0117188
        k(   96) = (   0.0625000   0.1804220   0.0689966), wk =   0.0117188
        k(   97) = (   0.0625000   0.1804220   0.0827959), wk =   0.0117188
        k(   98) = (   0.0625000   0.1804220   0.0965952), wk =   0.0117188
        k(   99) = (   0.0625000   0.1804220  -0.1103945), wk =   0.0058594
        k(  100) = (   0.0625000   0.2525907   0.0000000), wk =   0.0058594
        k(  101) = (   0.0625000   0.2525907   0.0137993), wk =   0.0117188
        k(  102) = (   0.0625000   0.2525907   0.0275986), wk =   0.0117188
        k(  103) = (   0.0625000   0.2525907   0.0413979), wk =   0.0117188
        k(  104) = (   0.0625000   0.2525907   0.0551973), wk =   0.0117188
        k(  105) = (   0.0625000   0.2525907   0.0689966), wk =   0.0117188
        k(  106) = (   0.0625000   0.2525907   0.0827959), wk =   0.0117188
        k(  107) = (   0.0625000   0.2525907   0.0965952), wk =   0.0117188
        k(  108) = (   0.0625000   0.2525907  -0.1103945), wk =   0.0058594
        k(  109) = (   0.0625000   0.3247595   0.0000000), wk =   0.0058594
        k(  110) = (   0.0625000   0.3247595   0.0137993), wk =   0.0117188
        k(  111) = (   0.0625000   0.3247595   0.0275986), wk =   0.0117188
        k(  112) = (   0.0625000   0.3247595   0.0413979), wk =   0.0117188
        k(  113) = (   0.0625000   0.3247595   0.0551973), wk =   0.0117188
        k(  114) = (   0.0625000   0.3247595   0.0689966), wk =   0.0117188
        k(  115) = (   0.0625000   0.3247595   0.0827959), wk =   0.0117188
        k(  116) = (   0.0625000   0.3247595   0.0965952), wk =   0.0117188
        k(  117) = (   0.0625000   0.3247595  -0.1103945), wk =   0.0058594
        k(  118) = (   0.0625000   0.3969283   0.0000000), wk =   0.0058594
        k(  119) = (   0.0625000   0.3969283   0.0137993), wk =   0.0117188
        k(  120) = (   0.0625000   0.3969283   0.0275986), wk =   0.0117188
        k(  121) = (   0.0625000   0.3969283   0.0413979), wk =   0.0117188
        k(  122) = (   0.0625000   0.3969283   0.0551973), wk =   0.0117188
        k(  123) = (   0.0625000   0.3969283   0.0689966), wk =   0.0117188
        k(  124) = (   0.0625000   0.3969283   0.0827959), wk =   0.0117188
        k(  125) = (   0.0625000   0.3969283   0.0965952), wk =   0.0117188
        k(  126) = (   0.0625000   0.3969283  -0.1103945), wk =   0.0058594
        k(  127) = (   0.0625000   0.4690971   0.0000000), wk =   0.0058594
        k(  128) = (   0.0625000   0.4690971   0.0137993), wk =   0.0117188
        k(  129) = (   0.0625000   0.4690971   0.0275986), wk =   0.0117188
        k(  130) = (   0.0625000   0.4690971   0.0413979), wk =   0.0117188
        k(  131) = (   0.0625000   0.4690971   0.0551973), wk =   0.0117188
        k(  132) = (   0.0625000   0.4690971   0.0689966), wk =   0.0117188
        k(  133) = (   0.0625000   0.4690971   0.0827959), wk =   0.0117188
        k(  134) = (   0.0625000   0.4690971   0.0965952), wk =   0.0117188
        k(  135) = (   0.0625000   0.4690971  -0.1103945), wk =   0.0058594
        k(  136) = (   0.0625000   0.5412659   0.0000000), wk =   0.0058594
        k(  137) = (   0.0625000   0.5412659   0.0137993), wk =   0.0117188
        k(  138) = (   0.0625000   0.5412659   0.0275986), wk =   0.0117188
        k(  139) = (   0.0625000   0.5412659   0.0413979), wk =   0.0117188
        k(  140) = (   0.0625000   0.5412659   0.0551973), wk =   0.0117188
        k(  141) = (   0.0625000   0.5412659   0.0689966), wk =   0.0117188
        k(  142) = (   0.0625000   0.5412659   0.0827959), wk =   0.0117188
        k(  143) = (   0.0625000   0.5412659   0.0965952), wk =   0.0117188
        k(  144) = (   0.0625000   0.5412659  -0.1103945), wk =   0.0058594
        k(  145) = (   0.1250000   0.2165064   0.0000000), wk =   0.0029297
        k(  146) = (   0.1250000   0.2165064   0.0137993), wk =   0.0058594
        k(  147) = (   0.1250000   0.2165064   0.0275986), wk =   0.0058594
        k(  148) = (   0.1250000   0.2165064   0.0413979), wk =   0.0058594
        k(  149) = (   0.1250000   0.2165064   0.0551973), wk =   0.0058594
        k(  150) = (   0.1250000   0.2165064   0.0689966), wk =   0.0058594
        k(  151) = (   0.1250000   0.2165064   0.0827959), wk =   0.0058594
        k(  152) = (   0.1250000   0.2165064   0.0965952), wk =   0.0058594
        k(  153) = (   0.1250000   0.2165064  -0.1103945), wk =   0.0029297
        k(  154) = (   0.1250000   0.2886751   0.0000000), wk =   0.0058594
        k(  155) = (   0.1250000   0.2886751   0.0137993), wk =   0.0117188
        k(  156) = (   0.1250000   0.2886751   0.0275986), wk =   0.0117188
        k(  157) = (   0.1250000   0.2886751   0.0413979), wk =   0.0117188
        k(  158) = (   0.1250000   0.2886751   0.0551973), wk =   0.0117188
        k(  159) = (   0.1250000   0.2886751   0.0689966), wk =   0.0117188
        k(  160) = (   0.1250000   0.2886751   0.0827959), wk =   0.0117188
        k(  161) = (   0.1250000   0.2886751   0.0965952), wk =   0.0117188
        k(  162) = (   0.1250000   0.2886751  -0.1103945), wk =   0.0058594
        k(  163) = (   0.1250000   0.3608439   0.0000000), wk =   0.0058594
        k(  164) = (   0.1250000   0.3608439   0.0137993), wk =   0.0117188
        k(  165) = (   0.1250000   0.3608439   0.0275986), wk =   0.0117188
        k(  166) = (   0.1250000   0.3608439   0.0413979), wk =   0.0117188
        k(  167) = (   0.1250000   0.3608439   0.0551973), wk =   0.0117188
        k(  168) = (   0.1250000   0.3608439   0.0689966), wk =   0.0117188
        k(  169) = (   0.1250000   0.3608439   0.0827959), wk =   0.0117188
        k(  170) = (   0.1250000   0.3608439   0.0965952), wk =   0.0117188
        k(  171) = (   0.1250000   0.3608439  -0.1103945), wk =   0.0058594
        k(  172) = (   0.1250000   0.4330127   0.0000000), wk =   0.0058594
        k(  173) = (   0.1250000   0.4330127   0.0137993), wk =   0.0117188
        k(  174) = (   0.1250000   0.4330127   0.0275986), wk =   0.0117188
        k(  175) = (   0.1250000   0.4330127   0.0413979), wk =   0.0117188
        k(  176) = (   0.1250000   0.4330127   0.0551973), wk =   0.0117188
        k(  177) = (   0.1250000   0.4330127   0.0689966), wk =   0.0117188
        k(  178) = (   0.1250000   0.4330127   0.0827959), wk =   0.0117188
        k(  179) = (   0.1250000   0.4330127   0.0965952), wk =   0.0117188
        k(  180) = (   0.1250000   0.4330127  -0.1103945), wk =   0.0058594
        k(  181) = (   0.1250000   0.5051815   0.0000000), wk =   0.0058594
        k(  182) = (   0.1250000   0.5051815   0.0137993), wk =   0.0117188
        k(  183) = (   0.1250000   0.5051815   0.0275986), wk =   0.0117188
        k(  184) = (   0.1250000   0.5051815   0.0413979), wk =   0.0117188
        k(  185) = (   0.1250000   0.5051815   0.0551973), wk =   0.0117188
        k(  186) = (   0.1250000   0.5051815   0.0689966), wk =   0.0117188
        k(  187) = (   0.1250000   0.5051815   0.0827959), wk =   0.0117188
        k(  188) = (   0.1250000   0.5051815   0.0965952), wk =   0.0117188
        k(  189) = (   0.1250000   0.5051815  -0.1103945), wk =   0.0058594
        k(  190) = (   0.1250000   0.5773503   0.0000000), wk =   0.0029297
        k(  191) = (   0.1250000   0.5773503   0.0137993), wk =   0.0058594
        k(  192) = (   0.1250000   0.5773503   0.0275986), wk =   0.0058594
        k(  193) = (   0.1250000   0.5773503   0.0413979), wk =   0.0058594
        k(  194) = (   0.1250000   0.5773503   0.0551973), wk =   0.0058594
        k(  195) = (   0.1250000   0.5773503   0.0689966), wk =   0.0058594
        k(  196) = (   0.1250000   0.5773503   0.0827959), wk =   0.0058594
        k(  197) = (   0.1250000   0.5773503   0.0965952), wk =   0.0058594
        k(  198) = (   0.1250000   0.5773503  -0.1103945), wk =   0.0029297
        k(  199) = (   0.1875000   0.3247595   0.0000000), wk =   0.0029297
        k(  200) = (   0.1875000   0.3247595   0.0137993), wk =   0.0058594
        k(  201) = (   0.1875000   0.3247595   0.0275986), wk =   0.0058594
        k(  202) = (   0.1875000   0.3247595   0.0413979), wk =   0.0058594
        k(  203) = (   0.1875000   0.3247595   0.0551973), wk =   0.0058594
        k(  204) = (   0.1875000   0.3247595   0.0689966), wk =   0.0058594
        k(  205) = (   0.1875000   0.3247595   0.0827959), wk =   0.0058594
        k(  206) = (   0.1875000   0.3247595   0.0965952), wk =   0.0058594
        k(  207) = (   0.1875000   0.3247595  -0.1103945), wk =   0.0029297
        k(  208) = (   0.1875000   0.3969283   0.0000000), wk =   0.0058594
        k(  209) = (   0.1875000   0.3969283   0.0137993), wk =   0.0117188
        k(  210) = (   0.1875000   0.3969283   0.0275986), wk =   0.0117188
        k(  211) = (   0.1875000   0.3969283   0.0413979), wk =   0.0117188
        k(  212) = (   0.1875000   0.3969283   0.0551973), wk =   0.0117188
        k(  213) = (   0.1875000   0.3969283   0.0689966), wk =   0.0117188
        k(  214) = (   0.1875000   0.3969283   0.0827959), wk =   0.0117188
        k(  215) = (   0.1875000   0.3969283   0.0965952), wk =   0.0117188
        k(  216) = (   0.1875000   0.3969283  -0.1103945), wk =   0.0058594
        k(  217) = (   0.1875000   0.4690971   0.0000000), wk =   0.0058594
        k(  218) = (   0.1875000   0.4690971   0.0137993), wk =   0.0117188
        k(  219) = (   0.1875000   0.4690971   0.0275986), wk =   0.0117188
        k(  220) = (   0.1875000   0.4690971   0.0413979), wk =   0.0117188
        k(  221) = (   0.1875000   0.4690971   0.0551973), wk =   0.0117188
        k(  222) = (   0.1875000   0.4690971   0.0689966), wk =   0.0117188
        k(  223) = (   0.1875000   0.4690971   0.0827959), wk =   0.0117188
        k(  224) = (   0.1875000   0.4690971   0.0965952), wk =   0.0117188
        k(  225) = (   0.1875000   0.4690971  -0.1103945), wk =   0.0058594
        k(  226) = (   0.1875000   0.5412659   0.0000000), wk =   0.0058594
        k(  227) = (   0.1875000   0.5412659   0.0137993), wk =   0.0117188
        k(  228) = (   0.1875000   0.5412659   0.0275986), wk =   0.0117188
        k(  229) = (   0.1875000   0.5412659   0.0413979), wk =   0.0117188
        k(  230) = (   0.1875000   0.5412659   0.0551973), wk =   0.0117188
        k(  231) = (   0.1875000   0.5412659   0.0689966), wk =   0.0117188
        k(  232) = (   0.1875000   0.5412659   0.0827959), wk =   0.0117188
        k(  233) = (   0.1875000   0.5412659   0.0965952), wk =   0.0117188
        k(  234) = (   0.1875000   0.5412659  -0.1103945), wk =   0.0058594
        k(  235) = (   0.2500000   0.4330127   0.0000000), wk =   0.0029297
        k(  236) = (   0.2500000   0.4330127   0.0137993), wk =   0.0058594
        k(  237) = (   0.2500000   0.4330127   0.0275986), wk =   0.0058594
        k(  238) = (   0.2500000   0.4330127   0.0413979), wk =   0.0058594
        k(  239) = (   0.2500000   0.4330127   0.0551973), wk =   0.0058594
        k(  240) = (   0.2500000   0.4330127   0.0689966), wk =   0.0058594
        k(  241) = (   0.2500000   0.4330127   0.0827959), wk =   0.0058594
        k(  242) = (   0.2500000   0.4330127   0.0965952), wk =   0.0058594
        k(  243) = (   0.2500000   0.4330127  -0.1103945), wk =   0.0029297
        k(  244) = (   0.2500000   0.5051815   0.0000000), wk =   0.0058594
        k(  245) = (   0.2500000   0.5051815   0.0137993), wk =   0.0117188
        k(  246) = (   0.2500000   0.5051815   0.0275986), wk =   0.0117188
        k(  247) = (   0.2500000   0.5051815   0.0413979), wk =   0.0117188
        k(  248) = (   0.2500000   0.5051815   0.0551973), wk =   0.0117188
        k(  249) = (   0.2500000   0.5051815   0.0689966), wk =   0.0117188
        k(  250) = (   0.2500000   0.5051815   0.0827959), wk =   0.0117188
        k(  251) = (   0.2500000   0.5051815   0.0965952), wk =   0.0117188
        k(  252) = (   0.2500000   0.5051815  -0.1103945), wk =   0.0058594
        k(  253) = (   0.2500000   0.5773503   0.0000000), wk =   0.0029297
        k(  254) = (   0.2500000   0.5773503   0.0137993), wk =   0.0058594
        k(  255) = (   0.2500000   0.5773503   0.0275986), wk =   0.0058594
        k(  256) = (   0.2500000   0.5773503   0.0413979), wk =   0.0058594
        k(  257) = (   0.2500000   0.5773503   0.0551973), wk =   0.0058594
        k(  258) = (   0.2500000   0.5773503   0.0689966), wk =   0.0058594
        k(  259) = (   0.2500000   0.5773503   0.0827959), wk =   0.0058594
        k(  260) = (   0.2500000   0.5773503   0.0965952), wk =   0.0058594
        k(  261) = (   0.2500000   0.5773503  -0.1103945), wk =   0.0029297
        k(  262) = (   0.3125000   0.5412659   0.0000000), wk =   0.0029297
        k(  263) = (   0.3125000   0.5412659   0.0137993), wk =   0.0058594
        k(  264) = (   0.3125000   0.5412659   0.0275986), wk =   0.0058594
        k(  265) = (   0.3125000   0.5412659   0.0413979), wk =   0.0058594
        k(  266) = (   0.3125000   0.5412659   0.0551973), wk =   0.0058594
        k(  267) = (   0.3125000   0.5412659   0.0689966), wk =   0.0058594
        k(  268) = (   0.3125000   0.5412659   0.0827959), wk =   0.0058594
        k(  269) = (   0.3125000   0.5412659   0.0965952), wk =   0.0058594
        k(  270) = (   0.3125000   0.5412659  -0.1103945), wk =   0.0029297

                       cryst. coord.
        k(    1) = (   0.0000000   0.0000000   0.0000000), wk =   0.0004883
        k(    2) = (   0.0000000   0.0000000   0.0625000), wk =   0.0009766
        k(    3) = (   0.0000000   0.0000000   0.1250000), wk =   0.0009766
        k(    4) = (   0.0000000   0.0000000   0.1875000), wk =   0.0009766
        k(    5) = (   0.0000000   0.0000000   0.2500000), wk =   0.0009766
        k(    6) = (   0.0000000   0.0000000   0.3125000), wk =   0.0009766
        k(    7) = (   0.0000000   0.0000000   0.3750000), wk =   0.0009766
        k(    8) = (   0.0000000   0.0000000   0.4375000), wk =   0.0009766
        k(    9) = (   0.0000000   0.0000000  -0.5000000), wk =   0.0004883
        k(   10) = (   0.0000000   0.0625000   0.0000000), wk =   0.0029297
        k(   11) = (   0.0000000   0.0625000   0.0625000), wk =   0.0058594
        k(   12) = (   0.0000000   0.0625000   0.1250000), wk =   0.0058594
        k(   13) = (   0.0000000   0.0625000   0.1875000), wk =   0.0058594
        k(   14) = (   0.0000000   0.0625000   0.2500000), wk =   0.0058594
        k(   15) = (   0.0000000   0.0625000   0.3125000), wk =   0.0058594
        k(   16) = (   0.0000000   0.0625000   0.3750000), wk =   0.0058594
        k(   17) = (   0.0000000   0.0625000   0.4375000), wk =   0.0058594
        k(   18) = (   0.0000000   0.0625000  -0.5000000), wk =   0.0029297
        k(   19) = (   0.0000000   0.1250000   0.0000000), wk =   0.0029297
        k(   20) = (   0.0000000   0.1250000   0.0625000), wk =   0.0058594
        k(   21) = (   0.0000000   0.1250000   0.1250000), wk =   0.0058594
        k(   22) = (   0.0000000   0.1250000   0.1875000), wk =   0.0058594
        k(   23) = (   0.0000000   0.1250000   0.2500000), wk =   0.0058594
        k(   24) = (   0.0000000   0.1250000   0.3125000), wk =   0.0058594
        k(   25) = (   0.0000000   0.1250000   0.3750000), wk =   0.0058594
        k(   26) = (   0.0000000   0.1250000   0.4375000), wk =   0.0058594
        k(   27) = (   0.0000000   0.1250000  -0.5000000), wk =   0.0029297
        k(   28) = (   0.0000000   0.1875000   0.0000000), wk =   0.0029297
        k(   29) = (   0.0000000   0.1875000   0.0625000), wk =   0.0058594
        k(   30) = (   0.0000000   0.1875000   0.1250000), wk =   0.0058594
        k(   31) = (   0.0000000   0.1875000   0.1875000), wk =   0.0058594
        k(   32) = (   0.0000000   0.1875000   0.2500000), wk =   0.0058594
        k(   33) = (   0.0000000   0.1875000   0.3125000), wk =   0.0058594
        k(   34) = (   0.0000000   0.1875000   0.3750000), wk =   0.0058594
        k(   35) = (   0.0000000   0.1875000   0.4375000), wk =   0.0058594
        k(   36) = (   0.0000000   0.1875000  -0.5000000), wk =   0.0029297
        k(   37) = (   0.0000000   0.2500000   0.0000000), wk =   0.0029297
        k(   38) = (   0.0000000   0.2500000   0.0625000), wk =   0.0058594
        k(   39) = (   0.0000000   0.2500000   0.1250000), wk =   0.0058594
        k(   40) = (   0.0000000   0.2500000   0.1875000), wk =   0.0058594
        k(   41) = (   0.0000000   0.2500000   0.2500000), wk =   0.0058594
        k(   42) = (   0.0000000   0.2500000   0.3125000), wk =   0.0058594
        k(   43) = (   0.0000000   0.2500000   0.3750000), wk =   0.0058594
        k(   44) = (   0.0000000   0.2500000   0.4375000), wk =   0.0058594
        k(   45) = (   0.0000000   0.2500000  -0.5000000), wk =   0.0029297
        k(   46) = (   0.0000000   0.3125000   0.0000000), wk =   0.0029297
        k(   47) = (   0.0000000   0.3125000   0.0625000), wk =   0.0058594
        k(   48) = (   0.0000000   0.3125000   0.1250000), wk =   0.0058594
        k(   49) = (   0.0000000   0.3125000   0.1875000), wk =   0.0058594
        k(   50) = (   0.0000000   0.3125000   0.2500000), wk =   0.0058594
        k(   51) = (   0.0000000   0.3125000   0.3125000), wk =   0.0058594
        k(   52) = (   0.0000000   0.3125000   0.3750000), wk =   0.0058594
        k(   53) = (   0.0000000   0.3125000   0.4375000), wk =   0.0058594
        k(   54) = (   0.0000000   0.3125000  -0.5000000), wk =   0.0029297
        k(   55) = (   0.0000000   0.3750000   0.0000000), wk =   0.0029297
        k(   56) = (   0.0000000   0.3750000   0.0625000), wk =   0.0058594
        k(   57) = (   0.0000000   0.3750000   0.1250000), wk =   0.0058594
        k(   58) = (   0.0000000   0.3750000   0.1875000), wk =   0.0058594
        k(   59) = (   0.0000000   0.3750000   0.2500000), wk =   0.0058594
        k(   60) = (   0.0000000   0.3750000   0.3125000), wk =   0.0058594
        k(   61) = (   0.0000000   0.3750000   0.3750000), wk =   0.0058594
        k(   62) = (   0.0000000   0.3750000   0.4375000), wk =   0.0058594
        k(   63) = (   0.0000000   0.3750000  -0.5000000), wk =   0.0029297
        k(   64) = (   0.0000000   0.4375000   0.0000000), wk =   0.0029297
        k(   65) = (   0.0000000   0.4375000   0.0625000), wk =   0.0058594
        k(   66) = (   0.0000000   0.4375000   0.1250000), wk =   0.0058594
        k(   67) = (   0.0000000   0.4375000   0.1875000), wk =   0.0058594
        k(   68) = (   0.0000000   0.4375000   0.2500000), wk =   0.0058594
        k(   69) = (   0.0000000   0.4375000   0.3125000), wk =   0.0058594
        k(   70) = (   0.0000000   0.4375000   0.3750000), wk =   0.0058594
        k(   71) = (   0.0000000   0.4375000   0.4375000), wk =   0.0058594
        k(   72) = (   0.0000000   0.4375000  -0.5000000), wk =   0.0029297
        k(   73) = (   0.0000000  -0.5000000   0.0000000), wk =   0.0014648
        k(   74) = (   0.0000000  -0.5000000   0.0625000), wk =   0.0029297
        k(   75) = (   0.0000000  -0.5000000   0.1250000), wk =   0.0029297
        k(   76) = (   0.0000000  -0.5000000   0.1875000), wk =   0.0029297
        k(   77) = (   0.0000000  -0.5000000   0.2500000), wk =   0.0029297
        k(   78) = (   0.0000000  -0.5000000   0.3125000), wk =   0.0029297
        k(   79) = (   0.0000000  -0.5000000   0.3750000), wk =   0.0029297
        k(   80) = (   0.0000000  -0.5000000   0.4375000), wk =   0.0029297
        k(   81) = (   0.0000000  -0.5000000  -0.5000000), wk =   0.0014648
        k(   82) = (   0.0625000   0.0625000   0.0000000), wk =   0.0029297
        k(   83) = (   0.0625000   0.0625000   0.0625000), wk =   0.0058594
        k(   84) = (   0.0625000   0.0625000   0.1250000), wk =   0.0058594
        k(   85) = (   0.0625000   0.0625000   0.1875000), wk =   0.0058594
        k(   86) = (   0.0625000   0.0625000   0.2500000), wk =   0.0058594
        k(   87) = (   0.0625000   0.0625000   0.3125000), wk =   0.0058594
        k(   88) = (   0.0625000   0.0625000   0.3750000), wk =   0.0058594
        k(   89) = (   0.0625000   0.0625000   0.4375000), wk =   0.0058594
        k(   90) = (   0.0625000   0.0625000  -0.5000000), wk =   0.0029297
        k(   91) = (   0.0625000   0.1250000   0.0000000), wk =   0.0058594
        k(   92) = (   0.0625000   0.1250000   0.0625000), wk =   0.0117188
        k(   93) = (   0.0625000   0.1250000   0.1250000), wk =   0.0117188
        k(   94) = (   0.0625000   0.1250000   0.1875000), wk =   0.0117188
        k(   95) = (   0.0625000   0.1250000   0.2500000), wk =   0.0117188
        k(   96) = (   0.0625000   0.1250000   0.3125000), wk =   0.0117188
        k(   97) = (   0.0625000   0.1250000   0.3750000), wk =   0.0117188
        k(   98) = (   0.0625000   0.1250000   0.4375000), wk =   0.0117188
        k(   99) = (   0.0625000   0.1250000  -0.5000000), wk =   0.0058594
        k(  100) = (   0.0625000   0.1875000   0.0000000), wk =   0.0058594
        k(  101) = (   0.0625000   0.1875000   0.0625000), wk =   0.0117188
        k(  102) = (   0.0625000   0.1875000   0.1250000), wk =   0.0117188
        k(  103) = (   0.0625000   0.1875000   0.1875000), wk =   0.0117188
        k(  104) = (   0.0625000   0.1875000   0.2500000), wk =   0.0117188
        k(  105) = (   0.0625000   0.1875000   0.3125000), wk =   0.0117188
        k(  106) = (   0.0625000   0.1875000   0.3750000), wk =   0.0117188
        k(  107) = (   0.0625000   0.1875000   0.4375000), wk =   0.0117188
        k(  108) = (   0.0625000   0.1875000  -0.5000000), wk =   0.0058594
        k(  109) = (   0.0625000   0.2500000   0.0000000), wk =   0.0058594
        k(  110) = (   0.0625000   0.2500000   0.0625000), wk =   0.0117188
        k(  111) = (   0.0625000   0.2500000   0.1250000), wk =   0.0117188
        k(  112) = (   0.0625000   0.2500000   0.1875000), wk =   0.0117188
        k(  113) = (   0.0625000   0.2500000   0.2500000), wk =   0.0117188
        k(  114) = (   0.0625000   0.2500000   0.3125000), wk =   0.0117188
        k(  115) = (   0.0625000   0.2500000   0.3750000), wk =   0.0117188
        k(  116) = (   0.0625000   0.2500000   0.4375000), wk =   0.0117188
        k(  117) = (   0.0625000   0.2500000  -0.5000000), wk =   0.0058594
        k(  118) = (   0.0625000   0.3125000   0.0000000), wk =   0.0058594
        k(  119) = (   0.0625000   0.3125000   0.0625000), wk =   0.0117188
        k(  120) = (   0.0625000   0.3125000   0.1250000), wk =   0.0117188
        k(  121) = (   0.0625000   0.3125000   0.1875000), wk =   0.0117188
        k(  122) = (   0.0625000   0.3125000   0.2500000), wk =   0.0117188
        k(  123) = (   0.0625000   0.3125000   0.3125000), wk =   0.0117188
        k(  124) = (   0.0625000   0.3125000   0.3750000), wk =   0.0117188
        k(  125) = (   0.0625000   0.3125000   0.4375000), wk =   0.0117188
        k(  126) = (   0.0625000   0.3125000  -0.5000000), wk =   0.0058594
        k(  127) = (   0.0625000   0.3750000   0.0000000), wk =   0.0058594
        k(  128) = (   0.0625000   0.3750000   0.0625000), wk =   0.0117188
        k(  129) = (   0.0625000   0.3750000   0.1250000), wk =   0.0117188
        k(  130) = (   0.0625000   0.3750000   0.1875000), wk =   0.0117188
        k(  131) = (   0.0625000   0.3750000   0.2500000), wk =   0.0117188
        k(  132) = (   0.0625000   0.3750000   0.3125000), wk =   0.0117188
        k(  133) = (   0.0625000   0.3750000   0.3750000), wk =   0.0117188
        k(  134) = (   0.0625000   0.3750000   0.4375000), wk =   0.0117188
        k(  135) = (   0.0625000   0.3750000  -0.5000000), wk =   0.0058594
        k(  136) = (   0.0625000   0.4375000   0.0000000), wk =   0.0058594
        k(  137) = (   0.0625000   0.4375000   0.0625000), wk =   0.0117188
        k(  138) = (   0.0625000   0.4375000   0.1250000), wk =   0.0117188
        k(  139) = (   0.0625000   0.4375000   0.1875000), wk =   0.0117188
        k(  140) = (   0.0625000   0.4375000   0.2500000), wk =   0.0117188
        k(  141) = (   0.0625000   0.4375000   0.3125000), wk =   0.0117188
        k(  142) = (   0.0625000   0.4375000   0.3750000), wk =   0.0117188
        k(  143) = (   0.0625000   0.4375000   0.4375000), wk =   0.0117188
        k(  144) = (   0.0625000   0.4375000  -0.5000000), wk =   0.0058594
        k(  145) = (   0.1250000   0.1250000   0.0000000), wk =   0.0029297
        k(  146) = (   0.1250000   0.1250000   0.0625000), wk =   0.0058594
        k(  147) = (   0.1250000   0.1250000   0.1250000), wk =   0.0058594
        k(  148) = (   0.1250000   0.1250000   0.1875000), wk =   0.0058594
        k(  149) = (   0.1250000   0.1250000   0.2500000), wk =   0.0058594
        k(  150) = (   0.1250000   0.1250000   0.3125000), wk =   0.0058594
        k(  151) = (   0.1250000   0.1250000   0.3750000), wk =   0.0058594
        k(  152) = (   0.1250000   0.1250000   0.4375000), wk =   0.0058594
        k(  153) = (   0.1250000   0.1250000  -0.5000000), wk =   0.0029297
        k(  154) = (   0.1250000   0.1875000   0.0000000), wk =   0.0058594
        k(  155) = (   0.1250000   0.1875000   0.0625000), wk =   0.0117188
        k(  156) = (   0.1250000   0.1875000   0.1250000), wk =   0.0117188
        k(  157) = (   0.1250000   0.1875000   0.1875000), wk =   0.0117188
        k(  158) = (   0.1250000   0.1875000   0.2500000), wk =   0.0117188
        k(  159) = (   0.1250000   0.1875000   0.3125000), wk =   0.0117188
        k(  160) = (   0.1250000   0.1875000   0.3750000), wk =   0.0117188
        k(  161) = (   0.1250000   0.1875000   0.4375000), wk =   0.0117188
        k(  162) = (   0.1250000   0.1875000  -0.5000000), wk =   0.0058594
        k(  163) = (   0.1250000   0.2500000   0.0000000), wk =   0.0058594
        k(  164) = (   0.1250000   0.2500000   0.0625000), wk =   0.0117188
        k(  165) = (   0.1250000   0.2500000   0.1250000), wk =   0.0117188
        k(  166) = (   0.1250000   0.2500000   0.1875000), wk =   0.0117188
        k(  167) = (   0.1250000   0.2500000   0.2500000), wk =   0.0117188
        k(  168) = (   0.1250000   0.2500000   0.3125000), wk =   0.0117188
        k(  169) = (   0.1250000   0.2500000   0.3750000), wk =   0.0117188
        k(  170) = (   0.1250000   0.2500000   0.4375000), wk =   0.0117188
        k(  171) = (   0.1250000   0.2500000  -0.5000000), wk =   0.0058594
        k(  172) = (   0.1250000   0.3125000   0.0000000), wk =   0.0058594
        k(  173) = (   0.1250000   0.3125000   0.0625000), wk =   0.0117188
        k(  174) = (   0.1250000   0.3125000   0.1250000), wk =   0.0117188
        k(  175) = (   0.1250000   0.3125000   0.1875000), wk =   0.0117188
        k(  176) = (   0.1250000   0.3125000   0.2500000), wk =   0.0117188
        k(  177) = (   0.1250000   0.3125000   0.3125000), wk =   0.0117188
        k(  178) = (   0.1250000   0.3125000   0.3750000), wk =   0.0117188
        k(  179) = (   0.1250000   0.3125000   0.4375000), wk =   0.0117188
        k(  180) = (   0.1250000   0.3125000  -0.5000000), wk =   0.0058594
        k(  181) = (   0.1250000   0.3750000   0.0000000), wk =   0.0058594
        k(  182) = (   0.1250000   0.3750000   0.0625000), wk =   0.0117188
        k(  183) = (   0.1250000   0.3750000   0.1250000), wk =   0.0117188
        k(  184) = (   0.1250000   0.3750000   0.1875000), wk =   0.0117188
        k(  185) = (   0.1250000   0.3750000   0.2500000), wk =   0.0117188
        k(  186) = (   0.1250000   0.3750000   0.3125000), wk =   0.0117188
        k(  187) = (   0.1250000   0.3750000   0.3750000), wk =   0.0117188
        k(  188) = (   0.1250000   0.3750000   0.4375000), wk =   0.0117188
        k(  189) = (   0.1250000   0.3750000  -0.5000000), wk =   0.0058594
        k(  190) = (   0.1250000   0.4375000   0.0000000), wk =   0.0029297
        k(  191) = (   0.1250000   0.4375000   0.0625000), wk =   0.0058594
        k(  192) = (   0.1250000   0.4375000   0.1250000), wk =   0.0058594
        k(  193) = (   0.1250000   0.4375000   0.1875000), wk =   0.0058594
        k(  194) = (   0.1250000   0.4375000   0.2500000), wk =   0.0058594
        k(  195) = (   0.1250000   0.4375000   0.3125000), wk =   0.0058594
        k(  196) = (   0.1250000   0.4375000   0.3750000), wk =   0.0058594
        k(  197) = (   0.1250000   0.4375000   0.4375000), wk =   0.0058594
        k(  198) = (   0.1250000   0.4375000  -0.5000000), wk =   0.0029297
        k(  199) = (   0.1875000   0.1875000   0.0000000), wk =   0.0029297
        k(  200) = (   0.1875000   0.1875000   0.0625000), wk =   0.0058594
        k(  201) = (   0.1875000   0.1875000   0.1250000), wk =   0.0058594
        k(  202) = (   0.1875000   0.1875000   0.1875000), wk =   0.0058594
        k(  203) = (   0.1875000   0.1875000   0.2500000), wk =   0.0058594
        k(  204) = (   0.1875000   0.1875000   0.3125000), wk =   0.0058594
        k(  205) = (   0.1875000   0.1875000   0.3750000), wk =   0.0058594
        k(  206) = (   0.1875000   0.1875000   0.4375000), wk =   0.0058594
        k(  207) = (   0.1875000   0.1875000  -0.5000000), wk =   0.0029297
        k(  208) = (   0.1875000   0.2500000   0.0000000), wk =   0.0058594
        k(  209) = (   0.1875000   0.2500000   0.0625000), wk =   0.0117188
        k(  210) = (   0.1875000   0.2500000   0.1250000), wk =   0.0117188
        k(  211) = (   0.1875000   0.2500000   0.1875000), wk =   0.0117188
        k(  212) = (   0.1875000   0.2500000   0.2500000), wk =   0.0117188
        k(  213) = (   0.1875000   0.2500000   0.3125000), wk =   0.0117188
        k(  214) = (   0.1875000   0.2500000   0.3750000), wk =   0.0117188
        k(  215) = (   0.1875000   0.2500000   0.4375000), wk =   0.0117188
        k(  216) = (   0.1875000   0.2500000  -0.5000000), wk =   0.0058594
        k(  217) = (   0.1875000   0.3125000   0.0000000), wk =   0.0058594
        k(  218) = (   0.1875000   0.3125000   0.0625000), wk =   0.0117188
        k(  219) = (   0.1875000   0.3125000   0.1250000), wk =   0.0117188
        k(  220) = (   0.1875000   0.3125000   0.1875000), wk =   0.0117188
        k(  221) = (   0.1875000   0.3125000   0.2500000), wk =   0.0117188
        k(  222) = (   0.1875000   0.3125000   0.3125000), wk =   0.0117188
        k(  223) = (   0.1875000   0.3125000   0.3750000), wk =   0.0117188
        k(  224) = (   0.1875000   0.3125000   0.4375000), wk =   0.0117188
        k(  225) = (   0.1875000   0.3125000  -0.5000000), wk =   0.0058594
        k(  226) = (   0.1875000   0.3750000   0.0000000), wk =   0.0058594
        k(  227) = (   0.1875000   0.3750000   0.0625000), wk =   0.0117188
        k(  228) = (   0.1875000   0.3750000   0.1250000), wk =   0.0117188
        k(  229) = (   0.1875000   0.3750000   0.1875000), wk =   0.0117188
        k(  230) = (   0.1875000   0.3750000   0.2500000), wk =   0.0117188
        k(  231) = (   0.1875000   0.3750000   0.3125000), wk =   0.0117188
        k(  232) = (   0.1875000   0.3750000   0.3750000), wk =   0.0117188
        k(  233) = (   0.1875000   0.3750000   0.4375000), wk =   0.0117188
        k(  234) = (   0.1875000   0.3750000  -0.5000000), wk =   0.0058594
        k(  235) = (   0.2500000   0.2500000   0.0000000), wk =   0.0029297
        k(  236) = (   0.2500000   0.2500000   0.0625000), wk =   0.0058594
        k(  237) = (   0.2500000   0.2500000   0.1250000), wk =   0.0058594
        k(  238) = (   0.2500000   0.2500000   0.1875000), wk =   0.0058594
        k(  239) = (   0.2500000   0.2500000   0.2500000), wk =   0.0058594
        k(  240) = (   0.2500000   0.2500000   0.3125000), wk =   0.0058594
        k(  241) = (   0.2500000   0.2500000   0.3750000), wk =   0.0058594
        k(  242) = (   0.2500000   0.2500000   0.4375000), wk =   0.0058594
        k(  243) = (   0.2500000   0.2500000  -0.5000000), wk =   0.0029297
        k(  244) = (   0.2500000   0.3125000   0.0000000), wk =   0.0058594
        k(  245) = (   0.2500000   0.3125000   0.0625000), wk =   0.0117188
        k(  246) = (   0.2500000   0.3125000   0.1250000), wk =   0.0117188
        k(  247) = (   0.2500000   0.3125000   0.1875000), wk =   0.0117188
        k(  248) = (   0.2500000   0.3125000   0.2500000), wk =   0.0117188
        k(  249) = (   0.2500000   0.3125000   0.3125000), wk =   0.0117188
        k(  250) = (   0.2500000   0.3125000   0.3750000), wk =   0.0117188
        k(  251) = (   0.2500000   0.3125000   0.4375000), wk =   0.0117188
        k(  252) = (   0.2500000   0.3125000  -0.5000000), wk =   0.0058594
        k(  253) = (   0.2500000   0.3750000   0.0000000), wk =   0.0029297
        k(  254) = (   0.2500000   0.3750000   0.0625000), wk =   0.0058594
        k(  255) = (   0.2500000   0.3750000   0.1250000), wk =   0.0058594
        k(  256) = (   0.2500000   0.3750000   0.1875000), wk =   0.0058594
        k(  257) = (   0.2500000   0.3750000   0.2500000), wk =   0.0058594
        k(  258) = (   0.2500000   0.3750000   0.3125000), wk =   0.0058594
        k(  259) = (   0.2500000   0.3750000   0.3750000), wk =   0.0058594
        k(  260) = (   0.2500000   0.3750000   0.4375000), wk =   0.0058594
        k(  261) = (   0.2500000   0.3750000  -0.5000000), wk =   0.0029297
        k(  262) = (   0.3125000   0.3125000   0.0000000), wk =   0.0029297
        k(  263) = (   0.3125000   0.3125000   0.0625000), wk =   0.0058594
        k(  264) = (   0.3125000   0.3125000   0.1250000), wk =   0.0058594
        k(  265) = (   0.3125000   0.3125000   0.1875000), wk =   0.0058594
        k(  266) = (   0.3125000   0.3125000   0.2500000), wk =   0.0058594
        k(  267) = (   0.3125000   0.3125000   0.3125000), wk =   0.0058594
        k(  268) = (   0.3125000   0.3125000   0.3750000), wk =   0.0058594
        k(  269) = (   0.3125000   0.3125000   0.4375000), wk =   0.0058594
        k(  270) = (   0.3125000   0.3125000  -0.5000000), wk =   0.0029297

     Dense  grid:   170417 G-vectors     FFT dimensions: (  45,  45, 200)

     Smooth grid:    53709 G-vectors     FFT dimensions: (  30,  30, 144)

     Dynamical RAM for                 wfc:       1.18 MB

     Dynamical RAM for     wfc (w. buffer):     319.18 MB

     Dynamical RAM for           str. fact:       1.30 MB

     Dynamical RAM for           local pot:       0.00 MB

     Dynamical RAM for          nlocal pot:       2.77 MB

     Dynamical RAM for                qrad:       3.50 MB

     Dynamical RAM for          rho,v,vnew:       8.53 MB

     Dynamical RAM for               rhoin:       2.84 MB

     Dynamical RAM for            rho*nmix:      20.80 MB

     Dynamical RAM for           G-vectors:       2.54 MB

     Dynamical RAM for          h,s,v(r/c):       0.10 MB

     Dynamical RAM for          <psi|beta>:       0.08 MB

     Dynamical RAM for                 psi:       2.36 MB

     Dynamical RAM for                hpsi:       2.36 MB

     Dynamical RAM for                spsi:       2.36 MB

     Dynamical RAM for      wfcinit/wfcrot:       2.40 MB

     Dynamical RAM for           addusdens:     123.50 MB

     Estimated static dynamical RAM per process >     367.28 MB

     Estimated max dynamical RAM per process >     490.77 MB

     Estimated total dynamical RAM >       1.92 GB

     Atomic positions and unit cell read from directory:
     ./tmp/WSe2.save/


     The initial density is read from file :
     ./tmp/WSe2.save/charge-density


     negative rho (up, down):  1.142E-03 0.000E+00
     Starting wfcs from file
     Checking if some PAW data can be deallocated... 
       PAW data deallocated on    3 nodes for type:  1
       PAW data deallocated on    1 nodes for type:  2

     total cpu time spent up to now is       10.3 secs

     Self-consistent Calculation

     iteration #  1     ecut=    55.00 Ry     beta= 0.50
     Davidson diagonalization with overlap
     ethr =  1.00E-05,  avg # of iterations =  2.0

     Threshold (ethr) on eigenvalues was too large:
     Diagonalizing with lowered threshold

     Davidson diagonalization with overlap
     ethr =  9.25E-07,  avg # of iterations =  3.0

     negative rho (up, down):  1.106E-03 0.000E+00

     total cpu time spent up to now is      468.7 secs

     total energy              =   -3127.99269392 Ry
     estimated scf accuracy    <       0.00129660 Ry

     iteration #  2     ecut=    55.00 Ry     beta= 0.50
     Davidson diagonalization with overlap
     ethr =  1.41E-06,  avg # of iterations =  5.6

     negative rho (up, down):  1.132E-03 0.000E+00

     total cpu time spent up to now is      752.6 secs

     total energy              =   -3127.99273944 Ry
     estimated scf accuracy    <       0.00262426 Ry

     iteration #  3     ecut=    55.00 Ry     beta= 0.50
     Davidson diagonalization with overlap
     ethr =  1.41E-06,  avg # of iterations =  5.0

     negative rho (up, down):  1.113E-03 0.000E+00

     total cpu time spent up to now is      988.6 secs

     total energy              =   -3127.99319024 Ry
     estimated scf accuracy    <       0.00003933 Ry

     iteration #  4     ecut=    55.00 Ry     beta= 0.50
     Davidson diagonalization with overlap
     ethr =  4.27E-08,  avg # of iterations =  4.5

     negative rho (up, down):  1.116E-03 0.000E+00

     total cpu time spent up to now is     1219.8 secs

     total energy              =   -3127.99319075 Ry
     estimated scf accuracy    <       0.00003472 Ry

     iteration #  5     ecut=    55.00 Ry     beta= 0.50
     Davidson diagonalization with overlap
     ethr =  3.77E-08,  avg # of iterations =  4.6

     negative rho (up, down):  1.121E-03 0.000E+00

     total cpu time spent up to now is     1470.2 secs

     total energy              =   -3127.99319924 Ry
     estimated scf accuracy    <       0.00000307 Ry

     iteration #  6     ecut=    55.00 Ry     beta= 0.50
     Davidson diagonalization with overlap
     ethr =  3.34E-09,  avg # of iterations =  3.4

     negative rho (up, down):  1.121E-03 0.000E+00

     total cpu time spent up to now is     1727.6 secs

     total energy              =   -3127.99319861 Ry
     estimated scf accuracy    <       0.00000334 Ry

     iteration #  7     ecut=    55.00 Ry     beta= 0.50
     Davidson diagonalization with overlap
     ethr =  3.34E-09,  avg # of iterations =  3.4

     negative rho (up, down):  1.121E-03 0.000E+00

     total cpu time spent up to now is     1975.8 secs

     total energy              =   -3127.99319884 Ry
     estimated scf accuracy    <       0.00000026 Ry

     iteration #  8     ecut=    55.00 Ry     beta= 0.50
     Davidson diagonalization with overlap
     ethr =  2.78E-10,  avg # of iterations =  5.5

     negative rho (up, down):  1.121E-03 0.000E+00

     total cpu time spent up to now is     2273.0 secs

     total energy              =   -3127.99319899 Ry
     estimated scf accuracy    <       0.00000039 Ry

     iteration #  9     ecut=    55.00 Ry     beta= 0.50
     Davidson diagonalization with overlap
     ethr =  2.78E-10,  avg # of iterations =  2.0

     negative rho (up, down):  1.121E-03 0.000E+00

     total cpu time spent up to now is     2493.1 secs

     total energy              =   -3127.99319898 Ry
     estimated scf accuracy    <       0.00000015 Ry

     iteration # 10     ecut=    55.00 Ry     beta= 0.50
     Davidson diagonalization with overlap
     ethr =  1.60E-10,  avg # of iterations =  3.1

     negative rho (up, down):  1.121E-03 0.000E+00

     total cpu time spent up to now is     2726.9 secs

     total energy              =   -3127.99319898 Ry
     estimated scf accuracy    <       0.00000002 Ry

     iteration # 11     ecut=    55.00 Ry     beta= 0.50
     Davidson diagonalization with overlap
     ethr =  2.06E-11,  avg # of iterations =  5.2

     negative rho (up, down):  1.121E-03 0.000E+00

     total cpu time spent up to now is     3035.5 secs

     total energy              =   -3127.99319899 Ry
     estimated scf accuracy    <          3.6E-09 Ry

     iteration # 12     ecut=    55.00 Ry     beta= 0.50
     Davidson diagonalization with overlap
     ethr =  3.94E-12,  avg # of iterations =  2.2

     negative rho (up, down):  1.121E-03 0.000E+00

     total cpu time spent up to now is     3281.4 secs

     total energy              =   -3127.99319899 Ry
     estimated scf accuracy    <          1.1E-09 Ry

     iteration # 13     ecut=    55.00 Ry     beta= 0.50
     Davidson diagonalization with overlap
     ethr =  1.18E-12,  avg # of iterations =  4.7

     negative rho (up, down):  1.121E-03 0.000E+00

     total cpu time spent up to now is     3557.0 secs

     End of self-consistent calculation

          k = 0.0000 0.0000 0.0000 (  6733 PWs)   bands (ev):

   -64.6093 -64.6090 -38.0461 -38.0461 -38.0423 -38.0423 -38.0396 -38.0396
   -38.0360 -38.0360 -38.0107 -38.0107 -38.0069 -38.0069 -38.0040 -38.0040
   -38.0005 -38.0005 -37.9955 -37.9920 -37.9884 -37.9851 -28.8249 -28.8247
   -28.7313 -28.7312 -28.7310 -28.7310  -5.2911  -5.2655  -3.9877  -3.9396
     3.2199   3.4575   7.0067   7.0067   7.0080   7.0080   7.0210   7.8501
     8.1353   8.1354   8.1396   8.1397   9.0354   9.5104

     occupation numbers 
     1.0000   1.0000   1.0000   1.0000   1.0000   1.0000   1.0000   1.0000
     1.0000   1.0000   1.0000   1.0000   1.0000   1.0000   1.0000   1.0000
     1.0000   1.0000   1.0000   1.0000   1.0000   1.0000   1.0000   1.0000
     1.0000   1.0000   1.0000   1.0000   1.0000   1.0000   1.0000   1.0000
     1.0000   1.0000   1.0000   1.0000   1.0000   1.0000   1.0000   1.0000
     1.0000   1.0000   1.0000   1.0000   1.0000   1.0000

          k = 0.0000 0.0000 0.0138 (  6733 PWs)   bands (ev):

   -64.6093 -64.6090 -38.0461 -38.0461 -38.0423 -38.0423 -38.0396 -38.0396
   -38.0360 -38.0360 -38.0107 -38.0107 -38.0069 -38.0069 -38.0040 -38.0040
   -38.0005 -38.0005 -37.9955 -37.9920 -37.9884 -37.9851 -28.8249 -28.8247
   -28.7313 -28.7312 -28.7310 -28.7310  -5.2909  -5.2658  -3.9873  -3.9401
     3.2220   3.4549   7.0067   7.0067   7.0080   7.0080   7.0276   7.8390
     8.1353   8.1354   8.1396   8.1397   9.0433   9.5075

     occupation numbers 
     1.0000   1.0000   1.0000   1.0000   1.0000   1.0000   1.0000   1.0000
     1.0000   1.0000   1.0000   1.0000   1.0000   1.0000   1.0000   1.0000
     1.0000   1.0000   1.0000   1.0000   1.0000   1.0000   1.0000   1.0000
     1.0000   1.0000   1.0000   1.0000   1.0000   1.0000   1.0000   1.0000
     1.0000   1.0000   1.0000   1.0000   1.0000   1.0000   1.0000   1.0000
     1.0000   1.0000   1.0000   1.0000   1.0000   1.0000

          k = 0.0000 0.0000 0.0276 (  6727 PWs)   bands (ev):

   -64.6093 -64.6090 -38.0461 -38.0461 -38.0423 -38.0423 -38.0396 -38.0396
   -38.0360 -38.0360 -38.0107 -38.0107 -38.0069 -38.0069 -38.0040 -38.0040
   -38.0005 -38.0005 -37.9955 -37.9920 -37.9884 -37.9851 -28.8249 -28.8247
   -28.7313 -28.7312 -28.7310 -28.7310  -5.2902  -5.2665  -3.9859  -3.9414
     3.2281   3.4475   7.0067   7.0068   7.0080   7.0080   7.0471   7.8069
     8.1354   8.1355   8.1395   8.1396   9.0660   9.4988

     occupation numbers 
     1.0000   1.0000   1.0000   1.0000   1.0000   1.0000   1.0000   1.0000
     1.0000   1.0000   1.0000   1.0000   1.0000   1.0000   1.0000   1.0000
     1.0000   1.0000   1.0000   1.0000   1.0000   1.0000   1.0000   1.0000
     1.0000   1.0000   1.0000   1.0000   1.0000   1.0000   1.0000   1.0000
     1.0000   1.0000   1.0000   1.0000   1.0000   1.0000   1.0000   1.0000
     1.0000   1.0000   1.0000   1.0000   1.0000   1.0000

          k = 0.0000 0.0000 0.0414 (  6751 PWs)   bands (ev):

   -64.6093 -64.6091 -38.0461 -38.0461 -38.0423 -38.0423 -38.0396 -38.0396
   -38.0360 -38.0360 -38.0107 -38.0107 -38.0069 -38.0069 -38.0040 -38.0040
   -38.0005 -38.0005 -37.9955 -37.9920 -37.9884 -37.9851 -28.8249 -28.8247
   -28.7313 -28.7313 -28.7311 -28.7310  -5.2891  -5.2678  -3.9836  -3.9436
     3.2383   3.4355   7.0068   7.0068   7.0079   7.0079   7.0791   7.7572
     8.1356   8.1357   8.1393   8.1394   9.1003   9.4842

     occupation numbers 
     1.0000   1.0000   1.0000   1.0000   1.0000   1.0000   1.0000   1.0000
     1.0000   1.0000   1.0000   1.0000   1.0000   1.0000   1.0000   1.0000
     1.0000   1.0000   1.0000   1.0000   1.0000   1.0000   1.0000   1.0000
     1.0000   1.0000   1.0000   1.0000   1.0000   1.0000   1.0000   1.0000
     1.0000   1.0000   1.0000   1.0000   1.0000   1.0000   1.0000   1.0000
     1.0000   1.0000   1.0000   1.0000   1.0000   1.0000

          k = 0.0000 0.0000 0.0552 (  6763 PWs)   bands (ev):

   -64.6093 -64.6091 -38.0461 -38.0461 -38.0423 -38.0423 -38.0396 -38.0396
   -38.0360 -38.0360 -38.0107 -38.0107 -38.0069 -38.0069 -38.0040 -38.0040
   -38.0005 -38.0005 -37.9955 -37.9920 -37.9884 -37.9851 -28.8249 -28.8247
   -28.7313 -28.7313 -28.7311 -28.7311  -5.2875  -5.2694  -3.9806  -3.9466
     3.2520   3.4196   7.0069   7.0069   7.0078   7.0078   7.1226   7.6940
     8.1359   8.1360   8.1390   8.1391   9.1427   9.4640

     occupation numbers 
     1.0000   1.0000   1.0000   1.0000   1.0000   1.0000   1.0000   1.0000
     1.0000   1.0000   1.0000   1.0000   1.0000   1.0000   1.0000   1.0000
     1.0000   1.0000   1.0000   1.0000   1.0000   1.0000   1.0000   1.0000
     1.0000   1.0000   1.0000   1.0000   1.0000   1.0000   1.0000   1.0000
     1.0000   1.0000   1.0000   1.0000   1.0000   1.0000   1.0000   1.0000
     1.0000   1.0000   1.0000   1.0000   1.0000   1.0000

          k = 0.0000 0.0000 0.0690 (  6769 PWs)   bands (ev):

   -64.6093 -64.6091 -38.0461 -38.0461 -38.0423 -38.0423 -38.0396 -38.0396
   -38.0360 -38.0360 -38.0107 -38.0107 -38.0069 -38.0069 -38.0040 -38.0040
   -38.0005 -38.0005 -37.9955 -37.9920 -37.9884 -37.9851 -28.8249 -28.8247
   -28.7313 -28.7313 -28.7311 -28.7311  -5.2856  -5.2714  -3.9769  -3.9502
     3.2689   3.4005   7.0070   7.0070   7.0077   7.0077   7.1765   7.6216
     8.1362   8.1363   8.1386   8.1388   9.1894   9.4381

     occupation numbers 
     1.0000   1.0000   1.0000   1.0000   1.0000   1.0000   1.0000   1.0000
     1.0000   1.0000   1.0000   1.0000   1.0000   1.0000   1.0000   1.0000
     1.0000   1.0000   1.0000   1.0000   1.0000   1.0000   1.0000   1.0000
     1.0000   1.0000   1.0000   1.0000   1.0000   1.0000   1.0000   1.0000
     1.0000   1.0000   1.0000   1.0000   1.0000   1.0000   1.0000   1.0000
     1.0000   1.0000   1.0000   1.0000   1.0000   1.0000

          k = 0.0000 0.0000 0.0828 (  6775 PWs)   bands (ev):

   -64.6093 -64.6091 -38.0461 -38.0461 -38.0423 -38.0423 -38.0396 -38.0396
   -38.0360 -38.0360 -38.0107 -38.0107 -38.0069 -38.0069 -38.0040 -38.0040
   -38.0005 -38.0005 -37.9955 -37.9920 -37.9884 -37.9851 -28.8249 -28.8247
   -28.7313 -28.7313 -28.7311 -28.7311  -5.2834  -5.2736  -3.9728  -3.9543
     3.2885   3.3791   7.0071   7.0071   7.0076   7.0076   7.2394   7.5439
     8.1366   8.1367   8.1383   8.1384   9.2376   9.4068

     occupation numbers 
     1.0000   1.0000   1.0000   1.0000   1.0000   1.0000   1.0000   1.0000
     1.0000   1.0000   1.0000   1.0000   1.0000   1.0000   1.0000   1.0000
     1.0000   1.0000   1.0000   1.0000   1.0000   1.0000   1.0000   1.0000
     1.0000   1.0000   1.0000   1.0000   1.0000   1.0000   1.0000   1.0000
     1.0000   1.0000   1.0000   1.0000   1.0000   1.0000   1.0000   1.0000
     1.0000   1.0000   1.0000   1.0000   1.0000   1.0000

          k = 0.0000 0.0000 0.0966 (  6788 PWs)   bands (ev):

   -64.6093 -64.6091 -38.0461 -38.0461 -38.0423 -38.0423 -38.0396 -38.0396
   -38.0360 -38.0360 -38.0107 -38.0107 -38.0069 -38.0069 -38.0040 -38.0040
   -38.0005 -38.0005 -37.9955 -37.9920 -37.9884 -37.9851 -28.8249 -28.8248
   -28.7313 -28.7313 -28.7311 -28.7311  -5.2810  -5.2760  -3.9682  -3.9588
     3.3101   3.3563   7.0072   7.0072   7.0075   7.0075   7.3096   7.4642
     8.1370   8.1371   8.1379   8.1380   9.2848   9.3704

     occupation numbers 
     1.0000   1.0000   1.0000   1.0000   1.0000   1.0000   1.0000   1.0000
     1.0000   1.0000   1.0000   1.0000   1.0000   1.0000   1.0000   1.0000
     1.0000   1.0000   1.0000   1.0000   1.0000   1.0000   1.0000   1.0000
     1.0000   1.0000   1.0000   1.0000   1.0000   1.0000   1.0000   1.0000
     1.0000   1.0000   1.0000   1.0000   1.0000   1.0000   1.0000   1.0000
     1.0000   1.0000   1.0000   1.0000   1.0000   1.0000

          k = 0.0000 0.0000-0.1104 (  6788 PWs)   bands (ev):

   -64.6093 -64.6091 -38.0461 -38.0461 -38.0423 -38.0423 -38.0396 -38.0396
   -38.0360 -38.0360 -38.0107 -38.0107 -38.0069 -38.0069 -38.0040 -38.0040
   -38.0005 -38.0005 -37.9955 -37.9920 -37.9884 -37.9851 -28.8249 -28.8248
   -28.7313 -28.7313 -28.7311 -28.7311  -5.2786  -5.2785  -3.9636  -3.9635
     3.3327   3.3333   7.0073   7.0074   7.0074   7.0074   7.3846   7.3859
     8.1374   8.1374   8.1375   8.1376   9.3289   9.3301

     occupation numbers 
     1.0000   1.0000   1.0000   1.0000   1.0000   1.0000   1.0000   1.0000
     1.0000   1.0000   1.0000   1.0000   1.0000   1.0000   1.0000   1.0000
     1.0000   1.0000   1.0000   1.0000   1.0000   1.0000   1.0000   1.0000
     1.0000   1.0000   1.0000   1.0000   1.0000   1.0000   1.0000   1.0000
     1.0000   1.0000   1.0000   1.0000   1.0000   1.0000   1.0000   1.0000
     1.0000   1.0000   1.0000   1.0000   1.0000   1.0000

          k = 0.0000 0.0722 0.0000 (  6739 PWs)   bands (ev):

   -64.6090 -64.6087 -38.0461 -38.0460 -38.0423 -38.0421 -38.0396 -38.0394
   -38.0360 -38.0358 -38.0107 -38.0107 -38.0070 -38.0069 -38.0040 -38.0040
   -38.0006 -38.0005 -37.9954 -37.9920 -37.9883 -37.9851 -28.8232 -28.8230
   -28.7393 -28.7391 -28.7331 -28.7329  -5.2343  -5.2087  -3.9601  -3.9128
     3.2925   3.5301   6.8293   6.8313   6.9112   7.0616   7.0633   7.5312
     8.0361   8.0409   8.1551   8.3405   9.0313   9.4610

     occupation numbers 
     1.0000   1.0000   1.0000   1.0000   1.0000   1.0000   1.0000   1.0000
     1.0000   1.0000   1.0000   1.0000   1.0000   1.0000   1.0000   1.0000
     1.0000   1.0000   1.0000   1.0000   1.0000   1.0000   1.0000   1.0000
     1.0000   1.0000   1.0000   1.0000   1.0000   1.0000   1.0000   1.0000
     1.0000   1.0000   1.0000   1.0000   1.0000   1.0000   1.0000   1.0000
     1.0000   1.0000   1.0000   1.0000   1.0000   1.0000

          k = 0.0000 0.0722 0.0138 (  6747 PWs)   bands (ev):

   -64.6090 -64.6087 -38.0461 -38.0460 -38.0423 -38.0421 -38.0396 -38.0394
   -38.0360 -38.0358 -38.0107 -38.0107 -38.0070 -38.0069 -38.0040 -38.0040
   -38.0006 -38.0005 -37.9954 -37.9920 -37.9883 -37.9851 -28.8232 -28.8231
   -28.7393 -28.7391 -28.7331 -28.7329  -5.2341  -5.2090  -3.9597  -3.9133
     3.2946   3.5276   6.8293   6.8312   6.9170   7.0616   7.0633   7.5253
     8.0361   8.0409   8.1556   8.3353   9.0390   9.4585

     occupation numbers 
     1.0000   1.0000   1.0000   1.0000   1.0000   1.0000   1.0000   1.0000
     1.0000   1.0000   1.0000   1.0000   1.0000   1.0000   1.0000   1.0000
     1.0000   1.0000   1.0000   1.0000   1.0000   1.0000   1.0000   1.0000
     1.0000   1.0000   1.0000   1.0000   1.0000   1.0000   1.0000   1.0000
     1.0000   1.0000   1.0000   1.0000   1.0000   1.0000   1.0000   1.0000
     1.0000   1.0000   1.0000   1.0000   1.0000   1.0000

          k = 0.0000 0.0722 0.0276 (  6760 PWs)   bands (ev):

   -64.6090 -64.6087 -38.0461 -38.0460 -38.0423 -38.0421 -38.0396 -38.0394
   -38.0360 -38.0358 -38.0107 -38.0107 -38.0070 -38.0069 -38.0040 -38.0040
   -38.0006 -38.0005 -37.9954 -37.9920 -37.9883 -37.9851 -28.8233 -28.8231
   -28.7393 -28.7391 -28.7331 -28.7329  -5.2333  -5.2097  -3.9583  -3.9146
     3.3008   3.5202   6.8293   6.8312   6.9342   7.0617   7.0633   7.5079
     8.0363   8.0407   8.1573   8.3209   9.0607   9.4509

     occupation numbers 
     1.0000   1.0000   1.0000   1.0000   1.0000   1.0000   1.0000   1.0000
     1.0000   1.0000   1.0000   1.0000   1.0000   1.0000   1.0000   1.0000
     1.0000   1.0000   1.0000   1.0000   1.0000   1.0000   1.0000   1.0000
     1.0000   1.0000   1.0000   1.0000   1.0000   1.0000   1.0000   1.0000
     1.0000   1.0000   1.0000   1.0000   1.0000   1.0000   1.0000   1.0000
     1.0000   1.0000   1.0000   1.0000   1.0000   1.0000

          k = 0.0000 0.0722 0.0414 (  6748 PWs)   bands (ev):

   -64.6090 -64.6087 -38.0461 -38.0460 -38.0423 -38.0421 -38.0396 -38.0394
   -38.0360 -38.0358 -38.0107 -38.0107 -38.0070 -38.0069 -38.0040 -38.0040
   -38.0006 -38.0005 -37.9954 -37.9920 -37.9883 -37.9851 -28.8232 -28.8230
   -28.7393 -28.7391 -28.7331 -28.7329  -5.2322  -5.2110  -3.9561  -3.9168
     3.3109   3.5082   6.8294   6.8311   6.9623   7.0617   7.0632   7.4794
     8.0365   8.0405   8.1602   8.3004   9.0933   9.4383

     occupation numbers 
     1.0000   1.0000   1.0000   1.0000   1.0000   1.0000   1.0000   1.0000
     1.0000   1.0000   1.0000   1.0000   1.0000   1.0000   1.0000   1.0000
     1.0000   1.0000   1.0000   1.0000   1.0000   1.0000   1.0000   1.0000
     1.0000   1.0000   1.0000   1.0000   1.0000   1.0000   1.0000   1.0000
     1.0000   1.0000   1.0000   1.0000   1.0000   1.0000   1.0000   1.0000
     1.0000   1.0000   1.0000   1.0000   1.0000   1.0000

          k = 0.0000 0.0722 0.0552 (  6752 PWs)   bands (ev):

   -64.6090 -64.6087 -38.0461 -38.0460 -38.0423 -38.0421 -38.0396 -38.0394
   -38.0360 -38.0358 -38.0107 -38.0107 -38.0070 -38.0069 -38.0040 -38.0040
   -38.0006 -38.0005 -37.9954 -37.9920 -37.9883 -37.9851 -28.8233 -28.8231
   -28.7393 -28.7391 -28.7331 -28.7329  -5.2306  -5.2126  -3.9531  -3.9197
     3.3246   3.4922   6.8295   6.8310   7.0002   7.0618   7.0631   7.4406
     8.0368   8.0402   8.1645   8.2773   9.1328   9.4206

     occupation numbers 
[...]
     6.2033   6.2263   7.2836   7.3007   9.2893   9.3077

     occupation numbers 
     1.0000   1.0000   1.0000   1.0000   1.0000   1.0000   1.0000   1.0000
     1.0000   1.0000   1.0000   1.0000   1.0000   1.0000   1.0000   1.0000
     1.0000   1.0000   1.0000   1.0000   1.0000   1.0000   1.0000   1.0000
     1.0000   1.0000   1.0000   1.0000   1.0000   1.0000   1.0000   1.0000
     1.0000   1.0000   1.0000   1.0000   1.0000   1.0000   1.0000   1.0000
     1.0000   1.0000   1.0000   1.0000   1.0000   1.0000

          k = 0.2500 0.5774 0.0966 (  6677 PWs)   bands (ev):

   -64.5998 -64.5996 -38.0447 -38.0433 -38.0409 -38.0394 -38.0380 -38.0367
   -38.0345 -38.0331 -38.0121 -38.0115 -38.0084 -38.0077 -38.0052 -38.0048
   -38.0018 -38.0013 -37.9936 -37.9901 -37.9863 -37.9831 -28.9031 -28.9029
   -28.8423 -28.8421 -28.7768 -28.7766  -3.1554  -3.1544  -2.9655  -2.9645
     3.9574   3.9616   4.1969   4.2008   5.3797   5.3875   5.8904   5.8936
     6.2103   6.2220   7.2873   7.2960   9.2938   9.3032

     occupation numbers 
     1.0000   1.0000   1.0000   1.0000   1.0000   1.0000   1.0000   1.0000
     1.0000   1.0000   1.0000   1.0000   1.0000   1.0000   1.0000   1.0000
     1.0000   1.0000   1.0000   1.0000   1.0000   1.0000   1.0000   1.0000
     1.0000   1.0000   1.0000   1.0000   1.0000   1.0000   1.0000   1.0000
     1.0000   1.0000   1.0000   1.0000   1.0000   1.0000   1.0000   1.0000
     1.0000   1.0000   1.0000   1.0000   1.0000   1.0000

          k = 0.2500 0.5774-0.1104 (  6680 PWs)   bands (ev):

   -64.5998 -64.5996 -38.0447 -38.0433 -38.0409 -38.0394 -38.0380 -38.0367
   -38.0345 -38.0331 -38.0121 -38.0115 -38.0084 -38.0077 -38.0052 -38.0048
   -38.0018 -38.0013 -37.9936 -37.9901 -37.9863 -37.9831 -28.9031 -28.9029
   -28.8423 -28.8421 -28.7768 -28.7767  -3.1550  -3.1548  -2.9650  -2.9649
     3.9594   3.9596   4.1988   4.1989   5.3834   5.3838   5.8916   5.8919
     6.2165   6.2166   7.2914   7.2915   9.2984   9.2985

     occupation numbers 
     1.0000   1.0000   1.0000   1.0000   1.0000   1.0000   1.0000   1.0000
     1.0000   1.0000   1.0000   1.0000   1.0000   1.0000   1.0000   1.0000
     1.0000   1.0000   1.0000   1.0000   1.0000   1.0000   1.0000   1.0000
     1.0000   1.0000   1.0000   1.0000   1.0000   1.0000   1.0000   1.0000
     1.0000   1.0000   1.0000   1.0000   1.0000   1.0000   1.0000   1.0000
     1.0000   1.0000   1.0000   1.0000   1.0000   1.0000

          k = 0.3125 0.5413 0.0000 (  6690 PWs)   bands (ev):

   -64.5997 -64.5995 -38.0444 -38.0435 -38.0406 -38.0396 -38.0377 -38.0370
   -38.0342 -38.0334 -38.0121 -38.0115 -38.0085 -38.0077 -38.0052 -38.0049
   -38.0018 -38.0014 -37.9935 -37.9901 -37.9863 -37.9831 -28.8925 -28.8923
   -28.8567 -28.8565 -28.7762 -28.7760  -3.1226  -3.1194  -2.9480  -2.9446
     4.1386   4.1623   4.1662   4.1695   5.2188   5.2419   5.7074   5.7405
     6.1990   6.2425   7.2318   7.2557   9.3816   9.4249

     occupation numbers 
     1.0000   1.0000   1.0000   1.0000   1.0000   1.0000   1.0000   1.0000
     1.0000   1.0000   1.0000   1.0000   1.0000   1.0000   1.0000   1.0000
     1.0000   1.0000   1.0000   1.0000   1.0000   1.0000   1.0000   1.0000
     1.0000   1.0000   1.0000   1.0000   1.0000   1.0000   1.0000   1.0000
     1.0000   1.0000   1.0000   1.0000   1.0000   1.0000   1.0000   1.0000
     1.0000   1.0000   1.0000   1.0000   1.0000   1.0000

          k = 0.3125 0.5413 0.0138 (  6679 PWs)   bands (ev):

   -64.5997 -64.5995 -38.0444 -38.0435 -38.0406 -38.0396 -38.0377 -38.0370
   -38.0342 -38.0334 -38.0121 -38.0115 -38.0085 -38.0077 -38.0052 -38.0049
   -38.0018 -38.0014 -37.9935 -37.9901 -37.9863 -37.9831 -28.8925 -28.8923
   -28.8567 -28.8565 -28.7762 -28.7760  -3.1225  -3.1194  -2.9479  -2.9447
     4.1388   4.1620   4.1664   4.1695   5.2191   5.2417   5.7074   5.7398
     6.2000   6.2426   7.2318   7.2553   9.3820   9.4244

     occupation numbers 
     1.0000   1.0000   1.0000   1.0000   1.0000   1.0000   1.0000   1.0000
     1.0000   1.0000   1.0000   1.0000   1.0000   1.0000   1.0000   1.0000
     1.0000   1.0000   1.0000   1.0000   1.0000   1.0000   1.0000   1.0000
     1.0000   1.0000   1.0000   1.0000   1.0000   1.0000   1.0000   1.0000
     1.0000   1.0000   1.0000   1.0000   1.0000   1.0000   1.0000   1.0000
     1.0000   1.0000   1.0000   1.0000   1.0000   1.0000

          k = 0.3125 0.5413 0.0276 (  6680 PWs)   bands (ev):

   -64.5997 -64.5995 -38.0444 -38.0435 -38.0406 -38.0396 -38.0377 -38.0370
   -38.0342 -38.0334 -38.0121 -38.0115 -38.0085 -38.0077 -38.0052 -38.0049
   -38.0018 -38.0014 -37.9935 -37.9901 -37.9863 -37.9831 -28.8925 -28.8923
   -28.8567 -28.8565 -28.7762 -28.7760  -3.1225  -3.1195  -2.9478  -2.9448
     4.1394   4.1610   4.1668   4.1695   5.2197   5.2410   5.7075   5.7380
     6.2026   6.2427   7.2318   7.2540   9.3832   9.4231

     occupation numbers 
     1.0000   1.0000   1.0000   1.0000   1.0000   1.0000   1.0000   1.0000
     1.0000   1.0000   1.0000   1.0000   1.0000   1.0000   1.0000   1.0000
     1.0000   1.0000   1.0000   1.0000   1.0000   1.0000   1.0000   1.0000
     1.0000   1.0000   1.0000   1.0000   1.0000   1.0000   1.0000   1.0000
     1.0000   1.0000   1.0000   1.0000   1.0000   1.0000   1.0000   1.0000
     1.0000   1.0000   1.0000   1.0000   1.0000   1.0000

          k = 0.3125 0.5413 0.0414 (  6678 PWs)   bands (ev):

   -64.5997 -64.5995 -38.0444 -38.0435 -38.0406 -38.0396 -38.0377 -38.0370
   -38.0342 -38.0334 -38.0121 -38.0115 -38.0085 -38.0077 -38.0052 -38.0049
   -38.0018 -38.0014 -37.9935 -37.9901 -37.9863 -37.9831 -28.8925 -28.8923
   -28.8567 -28.8565 -28.7762 -28.7760  -3.1223  -3.1197  -2.9477  -2.9449
     4.1404   4.1596   4.1672   4.1695   5.2208   5.2400   5.7078   5.7351
     6.2067   6.2426   7.2320   7.2520   9.3851   9.4211

     occupation numbers 
     1.0000   1.0000   1.0000   1.0000   1.0000   1.0000   1.0000   1.0000
     1.0000   1.0000   1.0000   1.0000   1.0000   1.0000   1.0000   1.0000
     1.0000   1.0000   1.0000   1.0000   1.0000   1.0000   1.0000   1.0000
     1.0000   1.0000   1.0000   1.0000   1.0000   1.0000   1.0000   1.0000
     1.0000   1.0000   1.0000   1.0000   1.0000   1.0000   1.0000   1.0000
     1.0000   1.0000   1.0000   1.0000   1.0000   1.0000

          k = 0.3125 0.5413 0.0552 (  6678 PWs)   bands (ev):

   -64.5997 -64.5995 -38.0444 -38.0435 -38.0406 -38.0396 -38.0377 -38.0370
   -38.0342 -38.0334 -38.0121 -38.0115 -38.0085 -38.0077 -38.0052 -38.0049
   -38.0018 -38.0014 -37.9935 -37.9901 -37.9863 -37.9831 -28.8925 -28.8923
   -28.8567 -28.8565 -28.7762 -28.7760  -3.1221  -3.1199  -2.9475  -2.9451
     4.1418   4.1579   4.1676   4.1695   5.2223   5.2386   5.7084   5.7314
     6.2118   6.2423   7.2324   7.2494   9.3877   9.4183

     occupation numbers 
     1.0000   1.0000   1.0000   1.0000   1.0000   1.0000   1.0000   1.0000
     1.0000   1.0000   1.0000   1.0000   1.0000   1.0000   1.0000   1.0000
     1.0000   1.0000   1.0000   1.0000   1.0000   1.0000   1.0000   1.0000
     1.0000   1.0000   1.0000   1.0000   1.0000   1.0000   1.0000   1.0000
     1.0000   1.0000   1.0000   1.0000   1.0000   1.0000   1.0000   1.0000
     1.0000   1.0000   1.0000   1.0000   1.0000   1.0000

          k = 0.3125 0.5413 0.0690 (  6678 PWs)   bands (ev):

   -64.5997 -64.5995 -38.0444 -38.0435 -38.0406 -38.0396 -38.0377 -38.0370
   -38.0342 -38.0334 -38.0121 -38.0115 -38.0085 -38.0077 -38.0052 -38.0049
   -38.0018 -38.0014 -37.9935 -37.9901 -37.9863 -37.9831 -28.8925 -28.8923
   -28.8567 -28.8565 -28.7762 -28.7760  -3.1219  -3.1201  -2.9472  -2.9454
     4.1434   4.1560   4.1680   4.1695   5.2241   5.2369   5.7094   5.7274
     6.2175   6.2413   7.2331   7.2465   9.3909   9.4149

     occupation numbers 
     1.0000   1.0000   1.0000   1.0000   1.0000   1.0000   1.0000   1.0000
     1.0000   1.0000   1.0000   1.0000   1.0000   1.0000   1.0000   1.0000
     1.0000   1.0000   1.0000   1.0000   1.0000   1.0000   1.0000   1.0000
     1.0000   1.0000   1.0000   1.0000   1.0000   1.0000   1.0000   1.0000
     1.0000   1.0000   1.0000   1.0000   1.0000   1.0000   1.0000   1.0000
     1.0000   1.0000   1.0000   1.0000   1.0000   1.0000

          k = 0.3125 0.5413 0.0828 (  6684 PWs)   bands (ev):

   -64.5997 -64.5995 -38.0444 -38.0435 -38.0406 -38.0396 -38.0377 -38.0370
   -38.0342 -38.0334 -38.0121 -38.0115 -38.0085 -38.0077 -38.0052 -38.0049
   -38.0018 -38.0014 -37.9935 -37.9901 -37.9863 -37.9831 -28.8925 -28.8923
   -28.8567 -28.8565 -28.7762 -28.7760  -3.1216  -3.1204  -2.9469  -2.9456
     4.1453   4.1540   4.1683   4.1694   5.2261   5.2349   5.7109   5.7233
     6.2232   6.2396   7.2342   7.2435   9.3946   9.4111

     occupation numbers 
     1.0000   1.0000   1.0000   1.0000   1.0000   1.0000   1.0000   1.0000
     1.0000   1.0000   1.0000   1.0000   1.0000   1.0000   1.0000   1.0000
     1.0000   1.0000   1.0000   1.0000   1.0000   1.0000   1.0000   1.0000
     1.0000   1.0000   1.0000   1.0000   1.0000   1.0000   1.0000   1.0000
     1.0000   1.0000   1.0000   1.0000   1.0000   1.0000   1.0000   1.0000
     1.0000   1.0000   1.0000   1.0000   1.0000   1.0000

          k = 0.3125 0.5413 0.0966 (  6692 PWs)   bands (ev):

   -64.5997 -64.5995 -38.0444 -38.0435 -38.0406 -38.0396 -38.0377 -38.0370
   -38.0342 -38.0334 -38.0121 -38.0115 -38.0085 -38.0077 -38.0052 -38.0049
   -38.0018 -38.0014 -37.9935 -37.9901 -37.9863 -37.9831 -28.8925 -28.8923
   -28.8567 -28.8565 -28.7762 -28.7760  -3.1213  -3.1207  -2.9466  -2.9460
     4.1473   4.1518   4.1686   4.1694   5.2282   5.2327   5.7131   5.7194
     6.2286   6.2369   7.2359   7.2406   9.3986   9.4070

     occupation numbers 
     1.0000   1.0000   1.0000   1.0000   1.0000   1.0000   1.0000   1.0000
     1.0000   1.0000   1.0000   1.0000   1.0000   1.0000   1.0000   1.0000
     1.0000   1.0000   1.0000   1.0000   1.0000   1.0000   1.0000   1.0000
     1.0000   1.0000   1.0000   1.0000   1.0000   1.0000   1.0000   1.0000
     1.0000   1.0000   1.0000   1.0000   1.0000   1.0000   1.0000   1.0000
     1.0000   1.0000   1.0000   1.0000   1.0000   1.0000

          k = 0.3125 0.5413-0.1104 (  6682 PWs)   bands (ev):

   -64.5997 -64.5995 -38.0444 -38.0435 -38.0406 -38.0396 -38.0377 -38.0370
   -38.0342 -38.0334 -38.0121 -38.0115 -38.0085 -38.0077 -38.0052 -38.0049
   -38.0018 -38.0014 -37.9935 -37.9901 -37.9863 -37.9831 -28.8925 -28.8923
   -28.8567 -28.8565 -28.7762 -28.7760  -3.1211  -3.1209  -2.9463  -2.9462
     4.1491   4.1500   4.1687   4.1693   5.2304   5.2306   5.7158   5.7162
     6.2331   6.2333   7.2380   7.2381   9.4027   9.4028

     occupation numbers 
     1.0000   1.0000   1.0000   1.0000   1.0000   1.0000   1.0000   1.0000
     1.0000   1.0000   1.0000   1.0000   1.0000   1.0000   1.0000   1.0000
     1.0000   1.0000   1.0000   1.0000   1.0000   1.0000   1.0000   1.0000
     1.0000   1.0000   1.0000   1.0000   1.0000   1.0000   1.0000   1.0000
     1.0000   1.0000   1.0000   1.0000   1.0000   1.0000   1.0000   1.0000
     1.0000   1.0000   1.0000   1.0000   1.0000   1.0000

     highest occupied level (ev):     9.5104

* XDM dispersion
  a1 =     0.327500
  a2 (ang) =     2.767300
  a2 (bohr) =     5.229439

+ Volumes and moments
# All results in atomic units (Hartree,bohr)
# i        V             Vfree           M1             M2             M3
  1   1.895065E+02   1.889096E+02   8.697223E+00   1.911034E+02   5.740304E+03
  2   1.895057E+02   1.889096E+02   8.697756E+00   1.911170E+02   5.740606E+03
  3   1.018029E+02   1.047414E+02   9.621807E+00   1.483173E+02   2.828969E+03
  4   1.018056E+02   1.047414E+02   9.622018E+00   1.483267E+02   2.829195E+03
  5   1.018003E+02   1.047414E+02   9.621752E+00   1.483144E+02   2.828930E+03
  6   1.017988E+02   1.047414E+02   9.621805E+00   1.483162E+02   2.828958E+03

+ Dispersion coefficients
# All results in atomic units (Hartree,bohr).
# i   j      C6             C8             C10            Rc            Rvdw
  1   1   3.257393E+02   2.147233E+04   1.520506E+06   8.266580E+00   7.936744E+00
  2   1   3.257493E+02   2.147310E+04   1.520555E+06   8.266584E+00   7.936745E+00
  2   2   3.257593E+02   2.147386E+04   1.520605E+06   8.266587E+00   7.936746E+00
  3   1   1.656361E+02   9.289114E+03   5.516727E+05   7.597336E+00   7.717567E+00
  3   2   1.656440E+02   9.289605E+03   5.516992E+05   7.597337E+00   7.717567E+00
  3   3   1.189614E+02   5.501268E+03   2.586271E+05   6.828407E+00   7.465742E+00
  4   1   1.656404E+02   9.289512E+03   5.517023E+05   7.597388E+00   7.717584E+00
  4   2   1.656482E+02   9.290003E+03   5.517288E+05   7.597390E+00   7.717584E+00
  4   3   1.189644E+02   5.501516E+03   2.586424E+05   6.828466E+00   7.465762E+00
  4   4   1.189673E+02   5.501764E+03   2.586576E+05   6.828525E+00   7.465781E+00
  5   1   1.656327E+02   9.288870E+03   5.516574E+05   7.597322E+00   7.717562E+00
  5   2   1.656406E+02   9.289362E+03   5.516838E+05   7.597323E+00   7.717562E+00
  5   3   1.189596E+02   5.501145E+03   2.586209E+05   6.828392E+00   7.465738E+00
  5   4   1.189625E+02   5.501393E+03   2.586362E+05   6.828451E+00   7.465757E+00
  5   5   1.189578E+02   5.501023E+03   2.586147E+05   6.828378E+00   7.465733E+00
  6   1   1.656310E+02   9.288797E+03   5.516535E+05   7.597329E+00   7.717564E+00
  6   2   1.656388E+02   9.289288E+03   5.516799E+05   7.597330E+00   7.717565E+00
  6   3   1.189590E+02   5.501136E+03   2.586207E+05   6.828400E+00   7.465740E+00
  6   4   1.189619E+02   5.501384E+03   2.586360E+05   6.828459E+00   7.465759E+00
  6   5   1.189572E+02   5.501014E+03   2.586145E+05   6.828385E+00   7.465735E+00
  6   6   1.189566E+02   5.501005E+03   2.586143E+05   6.828392E+00   7.465738E+00

+ van der Waals energies, forces and stresses (Ry,bohr)
  Evdw(total,Ry)   =  -2.134423502936E-01
  Evdw(C6,Ry)      =  -8.634057669863E-02
  Evdw(C8,Ry)      =  -6.628240981760E-02
  Evdw(C10,Ry)     =  -6.081936377739E-02
  Fvdw (001,Ry/bohr) =  -5.188787079360E-09   2.995747693698E-09   6.521137711076E-08
  Fvdw (002,Ry/bohr) =   5.189058820566E-09  -2.995904581314E-09   7.273311984702E-08
  Fvdw (003,Ry/bohr) =   2.593115664794E-09  -1.497136054177E-09  -2.875093890580E-03
  Fvdw (004,Ry/bohr) =  -2.593301355025E-09   1.497243285678E-09  -2.875400145900E-03
  Fvdw (005,Ry/bohr) =   2.593078257065E-09  -1.497114455213E-09   2.875111688985E-03
  Fvdw (006,Ry/bohr) =  -2.593164286052E-09   1.497164125221E-09   2.875244402999E-03
  sigma_vdw (Ry/bohr**3) =  -2.176619779552E-04   4.205913594667E-11  -8.247823398890E-17  
                             4.205913594667E-11  -2.176619293895E-04   4.760568725173E-17  
                            -8.247823398890E-17   4.760568725173E-17  -1.446152466034E-04  
  sigma_vdw (GPa) =  -3.201918234978E+00   6.187112494345E-07  -1.213296708404E-12  
                      6.187112494345E-07  -3.201917520551E+00   7.003038359384E-13  
                     -1.213296708404E-12   7.003038359384E-13  -2.127363720138E+00  


!    total energy              =   -3128.20664134 Ry

     total all-electron energy =    -84012.931205 Ry
     estimated scf accuracy    <          6.4E-12 Ry

     The total energy is the sum of the following terms:
     one-electron contribution =   -1187.59529348 Ry
     hartree contribution      =     615.58718838 Ry
     xc contribution           =    -194.12963151 Ry
     ewald contribution        =    -587.04339951 Ry
     Dispersion XDM Correction =      -0.21344235 Ry
     one-center paw contrib.   =   -1774.81206286 Ry
      -> PAW hartree energy AE =     183.59497539 Ry
      -> PAW hartree energy PS =    -182.61049152 Ry
      -> PAW xc energy AE      =   -1289.30457873 Ry
      -> PAW xc energy PS      =      77.22048028 Ry
      -> total E_H with PAW    =     616.57167225 Ry
      -> total E_XC with PAW   =   -1406.21372997 Ry

     convergence has been achieved in  13 iterations

     Writing output data file ./tmp/WSe2.save/

     init_run     :      5.53s CPU     10.04s WALL (       1 calls)
     electrons    :   3469.70s CPU   3554.24s WALL (       1 calls)

     Called by init_run:
     wfcinit      :      2.82s CPU      7.09s WALL (       1 calls)
     potinit      :      0.57s CPU      0.62s WALL (       1 calls)
     hinit0       :      1.48s CPU      1.54s WALL (       1 calls)
     init_xdm     :      0.00s CPU      0.00s WALL (       1 calls)

     Called by electrons:
     c_bands      :   2484.09s CPU   2524.18s WALL (      14 calls)
     sum_band     :    964.11s CPU   1006.89s WALL (      14 calls)
     v_of_rho     :      1.88s CPU      2.05s WALL (      14 calls)
     v_h          :      0.14s CPU      0.15s WALL (      14 calls)
     v_xc         :      1.73s CPU      1.89s WALL (      14 calls)
     newd         :      6.48s CPU      7.91s WALL (      14 calls)
     PAW_pot      :      6.00s CPU      6.04s WALL (      14 calls)
     mix_rho      :      0.66s CPU      0.69s WALL (      14 calls)
     energy_xdm   :      7.30s CPU      7.34s WALL (       1 calls)
     exdm:environ :      0.00s CPU      0.01s WALL (       2 calls)
     exdm:paw_cha :      0.16s CPU      0.17s WALL (       1 calls)
     exdm:rho     :      2.28s CPU      2.28s WALL (       1 calls)

     Called by c_bands:
     init_us_2    :     13.72s CPU     13.87s WALL (    7560 calls)
     cegterg      :   2417.74s CPU   2457.47s WALL (    3780 calls)

     Called by sum_band:
     sum_band:wei :      0.00s CPU      0.00s WALL (      14 calls)
     sum_band:loo :    953.05s CPU    993.72s WALL (      14 calls)
     sum_band:buf :      2.48s CPU      2.51s WALL (    3780 calls)
     sum_band:ini :      6.72s CPU      6.75s WALL (    3780 calls)
     sum_band:cal :    126.06s CPU    127.29s WALL (    3780 calls)
     sum_band:bec :      0.66s CPU      0.66s WALL (    3780 calls)
     addusdens    :     10.45s CPU     12.51s WALL (      14 calls)
     addusd:skk   :      0.02s CPU      0.03s WALL (      28 calls)
     addusd:dgemm :      4.82s CPU      6.81s WALL (      28 calls)
     addusd:qvan2 :      5.14s CPU      5.14s WALL (      28 calls)

     Called by *egterg:
     cdiaghg      :     80.48s CPU     81.31s WALL (   17920 calls)
     cegterg:over :    336.16s CPU    337.46s WALL (   14680 calls)
     cegterg:upda :    146.10s CPU    147.18s WALL (   14680 calls)
     cegterg:last :    356.30s CPU    358.01s WALL (    8065 calls)
     cdiaghg:chol :      5.50s CPU      5.55s WALL (   17920 calls)
     cdiaghg:inve :      0.70s CPU      0.71s WALL (   17920 calls)
     cdiaghg:para :     22.44s CPU     22.67s WALL (   35840 calls)
     h_psi        :   1108.72s CPU   1142.80s WALL (   18460 calls)
     s_psi        :    260.72s CPU    261.20s WALL (   18460 calls)
     g_psi        :      8.89s CPU      8.93s WALL (   14680 calls)

     Called by h_psi:
     h_psi:calbec :    320.87s CPU    326.21s WALL (   18460 calls)
     vloc_psi     :    516.85s CPU    544.90s WALL (   18460 calls)
     add_vuspsi   :    265.68s CPU    266.47s WALL (   18460 calls)

     General routines
     calbec       :    446.78s CPU    453.39s WALL (   22240 calls)
     fft          :      1.94s CPU      2.05s WALL (     229 calls)
     ffts         :      0.06s CPU      0.06s WALL (      42 calls)
     fftw         :    969.76s CPU   1019.02s WALL ( 1590304 calls)
     interpolate  :      0.14s CPU      0.15s WALL (      14 calls)

     Parallel routines
     fft_scatt_xy :    150.44s CPU    158.13s WALL ( 1590575 calls)
     fft_scatt_yz :    383.20s CPU    404.35s WALL ( 1590575 calls)

     PAW routines
     PAW_pot      :      6.00s CPU      6.04s WALL (      14 calls)
     PAW_symme    :      0.01s CPU      0.01s WALL (      27 calls)

     PWSCF        :  57m56.85s CPU  59m38.80s WALL


   This run was terminated on:  18:12: 7   7Sep2024            

=------------------------------------------------------------------------------=
   JOB DONE.
=------------------------------------------------------------------------------=
