
     Program PWSCF v.6.7MaX starts on  6Sep2024 at 19:19:35 

     This program is part of the open-source Quantum ESPRESSO suite
     for quantum simulation of materials; please cite
         "P. Giannozzi et al., J. Phys.:Condens. Matter 21 395502 (2009);
         "P. Giannozzi et al., J. Phys.:Condens. Matter 29 465901 (2017);
          URL http://www.quantum-espresso.org", 
     in publications or presentations arising from this work. More details at
     http://www.quantum-espresso.org/quote

     Parallel version (MPI), running on     4 processors

     MPI processes distributed on     1 nodes
     R & G space division:  proc/nbgrp/npool/nimage =       4
     Reading input from WSe2_relax.inp

     Current dimensions of program PWSCF are:
     Max number of different atomic species (ntypx) = 10
     Max number of k-points (npk) =  40000
     Max angular momentum in pseudopotentials (lmaxx) =  3
     file W.pbe-spn-kjpaw_psl.1.0.0.UPF: wavefunction(s)  6S 5P 5D renormalized
     file Se.pbe-dn-kjpaw_psl.1.0.0.UPF: wavefunction(s)  4S 4P 3D renormalized

     Subspace diagonalization in iterative solution of the eigenvalue problem:
     one sub-group per band group will be used
     scalapack distributed-memory algorithm (size of sub-group:  2*  2 procs)


     Parallelization info
     --------------------
     sticks:   dense  smooth     PW     G-vecs:    dense   smooth      PW
     Min         321     136     40                42597    11636    1894
     Max         322     137     41                42620    11647    1905
     Sum        1285     547    163               170417    46575    7599



     bravais-lattice index     =            4
     lattice parameter (alat)  =       6.2873  a.u.
     unit-cell volume          =     974.8449 (a.u.)^3
     number of atoms/cell      =            6
     number of atomic types    =            2
     number of electrons       =        92.00
     number of Kohn-Sham states=           46
     kinetic-energy cutoff     =      50.0000  Ry
     charge density cutoff     =     475.0000  Ry
     scf convergence threshold =      1.0E-08
     mixing beta               =       0.6000
     number of iterations used =            8  plain     mixing
     energy convergence thresh.=      1.0E-04
     force convergence thresh. =      1.0E-03
     Exchange-correlation= SLA  PW   PBX  PBC
                           (   1   4   3   4   0   0   0)
     nstep                     =          500


     celldm(1)=   6.287251  celldm(2)=   0.000000  celldm(3)=   4.529210
     celldm(4)=   0.000000  celldm(5)=   0.000000  celldm(6)=   0.000000

     crystal axes: (cart. coord. in units of alat)
               a(1) = (   1.000000   0.000000   0.000000 )  
               a(2) = (  -0.500000   0.866025   0.000000 )  
               a(3) = (   0.000000   0.000000   4.529210 )  

     reciprocal axes: (cart. coord. in units 2 pi/alat)
               b(1) = (  1.000000  0.577350 -0.000000 )  
               b(2) = (  0.000000  1.154701  0.000000 )  
               b(3) = (  0.000000 -0.000000  0.220789 )  


     PseudoPot. # 1 for W  read from file:
     /home/alessandro_rotondi/q-e/pseudo/W.pbe-spn-kjpaw_psl.1.0.0.UPF
     MD5 check sum: 03c3df5b60893f488392c7401945500a
     Pseudo is Projector augmented-wave + core cor, Zval = 14.0
     Generated using &quot;atomic&quot; code by A. Dal Corso  v.6.2.2
     Shape of augmentation charge: PSQ
     Using radial grid of 1273 points,  6 beta functions with: 
                l(1) =   0
                l(2) =   0
                l(3) =   1
                l(4) =   1
                l(5) =   2
                l(6) =   2
     Q(r) pseudized with 0 coefficients 


     PseudoPot. # 2 for Se read from file:
     /home/alessandro_rotondi/q-e/pseudo/Se.pbe-dn-kjpaw_psl.1.0.0.UPF
     MD5 check sum: ac240dd2bae32a30e0bf3a38df9c8785
     Pseudo is Projector augmented-wave + core cor, Zval = 16.0
     Generated using &quot;atomic&quot; code by A. Dal Corso  v.6.3
     Shape of augmentation charge: PSQ
     Using radial grid of 1211 points,  6 beta functions with: 
                l(1) =   0
                l(2) =   0
                l(3) =   1
                l(4) =   1
                l(5) =   2
                l(6) =   2
     Q(r) pseudized with 0 coefficients 


     atomic species   valence    mass     pseudopotential
        W             14.00   183.84000     W ( 1.00)
        Se            16.00    78.96000     Se( 1.00)

     24 Sym. Ops., with inversion, found (12 have fractional translation)


                                    s                        frac. trans.

      isym =  1     identity                                     

 cryst.   s( 1) = (     1          0          0      )
                  (     0          1          0      )
                  (     0          0          1      )

 cart.    s( 1) = (  1.0000000  0.0000000  0.0000000 )
                  (  0.0000000  1.0000000  0.0000000 )
                  (  0.0000000  0.0000000  1.0000000 )


      isym =  2     180 deg rotation - cart. axis [0,0,1]        

 cryst.   s( 2) = (    -1          0          0      )    f =(  0.0000000 )
                  (     0         -1          0      )       (  0.0000000 )
                  (     0          0          1      )       (  0.4999990 )

 cart.    s( 2) = ( -1.0000000  0.0000000  0.0000000 )    f =(  0.0000000 )
                  (  0.0000000 -1.0000000  0.0000000 )       (  0.0000000 )
                  (  0.0000000  0.0000000  1.0000000 )       (  2.2646007 )


      isym =  3     180 deg rotation - cart. axis [0,1,0]        

 cryst.   s( 3) = (    -1          0          0      )    f =(  0.0000010 )
                  (     1          1          0      )       (  0.0000000 )
                  (     0          0         -1      )       ( -0.4999980 )

 cart.    s( 3) = ( -1.0000000  0.0000000  0.0000000 )    f =(  0.0000010 )
                  (  0.0000000  1.0000000  0.0000000 )       (  0.0000000 )
                  (  0.0000000  0.0000000 -1.0000000 )       ( -2.2645961 )


      isym =  4     180 deg rotation - cart. axis [1,0,0]        

 cryst.   s( 4) = (     1          0          0      )
                  (    -1         -1          0      )
                  (     0          0         -1      )

 cart.    s( 4) = (  1.0000000  0.0000000  0.0000000 )
                  (  0.0000000 -1.0000000  0.0000000 )
                  (  0.0000000  0.0000000 -1.0000000 )


      isym =  5      60 deg rotation - cryst. axis [0,0,1]       

 cryst.   s( 5) = (     1          1          0      )    f =(  0.0000010 )
                  (    -1          0          0      )       (  0.0000000 )
                  (     0          0          1      )       (  0.4999990 )

 cart.    s( 5) = (  0.5000000 -0.8660254  0.0000000 )    f =(  0.0000010 )
                  (  0.8660254  0.5000000  0.0000000 )       (  0.0000000 )
                  (  0.0000000  0.0000000  1.0000000 )       (  2.2646007 )


      isym =  6      60 deg rotation - cryst. axis [0,0,-1]      

 cryst.   s( 6) = (     0         -1          0      )    f =(  0.0000000 )
                  (     1          1          0      )       ( -0.0000010 )
                  (     0          0          1      )       (  0.4999990 )

 cart.    s( 6) = (  0.5000000  0.8660254  0.0000000 )    f =(  0.0000005 )
                  ( -0.8660254  0.5000000  0.0000000 )       ( -0.0000009 )
                  (  0.0000000  0.0000000  1.0000000 )       (  2.2646007 )


      isym =  7     120 deg rotation - cryst. axis [0,0,1]       

 cryst.   s( 7) = (     0          1          0      )
                  (    -1         -1          0      )
                  (     0          0          1      )

 cart.    s( 7) = ( -0.5000000 -0.8660254  0.0000000 )
                  (  0.8660254 -0.5000000  0.0000000 )
                  (  0.0000000  0.0000000  1.0000000 )


      isym =  8     120 deg rotation - cryst. axis [0,0,-1]      

 cryst.   s( 8) = (    -1         -1          0      )
                  (     1          0          0      )
                  (     0          0          1      )

 cart.    s( 8) = ( -0.5000000  0.8660254  0.0000000 )
                  ( -0.8660254 -0.5000000  0.0000000 )
                  (  0.0000000  0.0000000  1.0000000 )


      isym =  9     180 deg rotation - cryst. axis [1,-1,0]      

 cryst.   s( 9) = (     0         -1          0      )    f =(  0.0000000 )
                  (    -1          0          0      )       (  0.0000000 )
                  (     0          0         -1      )       ( -0.4999980 )

 cart.    s( 9) = (  0.5000000 -0.8660254  0.0000000 )    f =(  0.0000000 )
                  ( -0.8660254 -0.5000000  0.0000000 )       (  0.0000000 )
                  (  0.0000000  0.0000000 -1.0000000 )       ( -2.2645961 )


      isym = 10     180 deg rotation - cryst. axis [2,1,0]       

 cryst.   s(10) = (     1          1          0      )    f =(  0.0000000 )
                  (     0         -1          0      )       ( -0.0000010 )
                  (     0          0         -1      )       ( -0.4999980 )

 cart.    s(10) = (  0.5000000  0.8660254  0.0000000 )    f =(  0.0000005 )
                  (  0.8660254 -0.5000000  0.0000000 )       ( -0.0000009 )
                  (  0.0000000  0.0000000 -1.0000000 )       ( -2.2645961 )


      isym = 11     180 deg rotation - cryst. axis [0,1,0]       

 cryst.   s(11) = (    -1         -1          0      )
                  (     0          1          0      )
                  (     0          0         -1      )

 cart.    s(11) = ( -0.5000000 -0.8660254  0.0000000 )
                  ( -0.8660254  0.5000000  0.0000000 )
                  (  0.0000000  0.0000000 -1.0000000 )


      isym = 12     180 deg rotation - cryst. axis [1,1,0]       

 cryst.   s(12) = (     0          1          0      )
                  (     1          0          0      )
                  (     0          0         -1      )

 cart.    s(12) = ( -0.5000000  0.8660254  0.0000000 )
                  (  0.8660254  0.5000000  0.0000000 )
                  (  0.0000000  0.0000000 -1.0000000 )


      isym = 13     inversion                                    

 cryst.   s(13) = (    -1          0          0      )
                  (     0         -1          0      )
                  (     0          0         -1      )

 cart.    s(13) = ( -1.0000000  0.0000000  0.0000000 )
                  (  0.0000000 -1.0000000  0.0000000 )
                  (  0.0000000  0.0000000 -1.0000000 )


      isym = 14     inv. 180 deg rotation - cart. axis [0,0,1]   

 cryst.   s(14) = (     1          0          0      )    f =(  0.0000000 )
                  (     0          1          0      )       (  0.0000000 )
                  (     0          0         -1      )       ( -0.4999980 )

 cart.    s(14) = (  1.0000000  0.0000000  0.0000000 )    f =(  0.0000000 )
                  (  0.0000000  1.0000000  0.0000000 )       (  0.0000000 )
                  (  0.0000000  0.0000000 -1.0000000 )       ( -2.2645961 )


      isym = 15     inv. 180 deg rotation - cart. axis [0,1,0]   

 cryst.   s(15) = (     1          0          0      )    f =(  0.0000010 )
                  (    -1         -1          0      )       (  0.0000000 )
                  (     0          0          1      )       (  0.4999990 )

 cart.    s(15) = (  1.0000000  0.0000000  0.0000000 )    f =(  0.0000010 )
                  (  0.0000000 -1.0000000  0.0000000 )       (  0.0000000 )
                  (  0.0000000  0.0000000  1.0000000 )       (  2.2646007 )


      isym = 16     inv. 180 deg rotation - cart. axis [1,0,0]   

 cryst.   s(16) = (    -1          0          0      )
                  (     1          1          0      )
                  (     0          0          1      )

 cart.    s(16) = ( -1.0000000  0.0000000  0.0000000 )
                  (  0.0000000  1.0000000  0.0000000 )
                  (  0.0000000  0.0000000  1.0000000 )


      isym = 17     inv.  60 deg rotation - cryst. axis [0,0,1]  

 cryst.   s(17) = (    -1         -1          0      )    f =(  0.0000010 )
                  (     1          0          0      )       (  0.0000000 )
                  (     0          0         -1      )       ( -0.4999980 )

 cart.    s(17) = ( -0.5000000  0.8660254  0.0000000 )    f =(  0.0000010 )
                  ( -0.8660254 -0.5000000  0.0000000 )       (  0.0000000 )
                  (  0.0000000  0.0000000 -1.0000000 )       ( -2.2645961 )


      isym = 18     inv.  60 deg rotation - cryst. axis [0,0,-1] 

 cryst.   s(18) = (     0          1          0      )    f =(  0.0000000 )
                  (    -1         -1          0      )       ( -0.0000010 )
                  (     0          0         -1      )       ( -0.4999980 )

 cart.    s(18) = ( -0.5000000 -0.8660254  0.0000000 )    f =(  0.0000005 )
                  (  0.8660254 -0.5000000  0.0000000 )       ( -0.0000009 )
                  (  0.0000000  0.0000000 -1.0000000 )       ( -2.2645961 )


      isym = 19     inv. 120 deg rotation - cryst. axis [0,0,1]  

 cryst.   s(19) = (     0         -1          0      )
                  (     1          1          0      )
                  (     0          0         -1      )

 cart.    s(19) = (  0.5000000  0.8660254  0.0000000 )
                  ( -0.8660254  0.5000000  0.0000000 )
                  (  0.0000000  0.0000000 -1.0000000 )


      isym = 20     inv. 120 deg rotation - cryst. axis [0,0,-1] 

 cryst.   s(20) = (     1          1          0      )
                  (    -1          0          0      )
                  (     0          0         -1      )

 cart.    s(20) = (  0.5000000 -0.8660254  0.0000000 )
                  (  0.8660254  0.5000000  0.0000000 )
                  (  0.0000000  0.0000000 -1.0000000 )


      isym = 21     inv. 180 deg rotation - cryst. axis [1,-1,0] 

 cryst.   s(21) = (     0          1          0      )    f =(  0.0000000 )
                  (     1          0          0      )       (  0.0000000 )
                  (     0          0          1      )       (  0.4999990 )

 cart.    s(21) = ( -0.5000000  0.8660254  0.0000000 )    f =( -0.0000000 )
                  (  0.8660254  0.5000000  0.0000000 )       (  0.0000000 )
                  (  0.0000000  0.0000000  1.0000000 )       (  2.2646007 )


      isym = 22     inv. 180 deg rotation - cryst. axis [2,1,0]  

 cryst.   s(22) = (    -1         -1          0      )    f =(  0.0000000 )
                  (     0          1          0      )       ( -0.0000010 )
                  (     0          0          1      )       (  0.4999990 )

 cart.    s(22) = ( -0.5000000 -0.8660254  0.0000000 )    f =(  0.0000005 )
                  ( -0.8660254  0.5000000  0.0000000 )       ( -0.0000009 )
                  (  0.0000000  0.0000000  1.0000000 )       (  2.2646007 )


      isym = 23     inv. 180 deg rotation - cryst. axis [0,1,0]  

 cryst.   s(23) = (     1          1          0      )
                  (     0         -1          0      )
                  (     0          0          1      )

 cart.    s(23) = (  0.5000000  0.8660254  0.0000000 )
                  (  0.8660254 -0.5000000  0.0000000 )
                  (  0.0000000  0.0000000  1.0000000 )


      isym = 24     inv. 180 deg rotation - cryst. axis [1,1,0]  

 cryst.   s(24) = (     0         -1          0      )
                  (    -1          0          0      )
                  (     0          0          1      )

 cart.    s(24) = (  0.5000000 -0.8660254  0.0000000 )
                  ( -0.8660254 -0.5000000  0.0000000 )
                  (  0.0000000  0.0000000  1.0000000 )


     point group D_6h(6/mmm)
     there are 12 classes
     the character table:

       E     2C6   2C3   C2    3C2'  3C2'' i     2S3   2S6   s_h   3s_d  3s_v 
A_1g   1.00  1.00  1.00  1.00  1.00  1.00  1.00  1.00  1.00  1.00  1.00  1.00
A_2g   1.00  1.00  1.00  1.00 -1.00 -1.00  1.00  1.00  1.00  1.00 -1.00 -1.00
B_1g   1.00 -1.00  1.00 -1.00  1.00 -1.00  1.00 -1.00  1.00 -1.00  1.00 -1.00
B_2g   1.00 -1.00  1.00 -1.00 -1.00  1.00  1.00 -1.00  1.00 -1.00 -1.00  1.00
E_1g   2.00  1.00 -1.00 -2.00  0.00  0.00  2.00  1.00 -1.00 -2.00  0.00  0.00
E_2g   2.00 -1.00 -1.00  2.00  0.00  0.00  2.00 -1.00 -1.00  2.00  0.00  0.00
A_1u   1.00  1.00  1.00  1.00  1.00  1.00 -1.00 -1.00 -1.00 -1.00 -1.00 -1.00
A_2u   1.00  1.00  1.00  1.00 -1.00 -1.00 -1.00 -1.00 -1.00 -1.00  1.00  1.00
B_1u   1.00 -1.00  1.00 -1.00  1.00 -1.00 -1.00  1.00 -1.00  1.00 -1.00  1.00
B_2u   1.00 -1.00  1.00 -1.00 -1.00  1.00 -1.00  1.00 -1.00  1.00  1.00 -1.00
E_1u   2.00  1.00 -1.00 -2.00  0.00  0.00 -2.00 -1.00  1.00  2.00  0.00  0.00
E_2u   2.00 -1.00 -1.00  2.00  0.00  0.00 -2.00  1.00  1.00 -2.00  0.00  0.00

     the symmetry operations in each class and the name of the first element:

     E        1
          identity                                               
     2C6      5    6
           60 deg rotation - cryst. axis [0,0,1]                 
     2C3      7    8
          120 deg rotation - cryst. axis [0,0,1]                 
     C2       2
          180 deg rotation - cart. axis [0,0,1]                  
     3C2'     4   12   11
          180 deg rotation - cart. axis [1,0,0]                  
     3C2''    3    9   10
          180 deg rotation - cart. axis [0,1,0]                  
     i       13
          inversion                                              
     2S3     17   18
          inv.  60 deg rotation - cryst. axis [0,0,1]            
     2S6     19   20
          inv. 120 deg rotation - cryst. axis [0,0,1]            
     s_h     14
          inv. 180 deg rotation - cart. axis [0,0,1]             
     3s_d    16   24   23
          inv. 180 deg rotation - cart. axis [1,0,0]             
     3s_v    15   21   22
          inv. 180 deg rotation - cart. axis [0,1,0]             

   Cartesian axes

     site n.     atom                  positions (alat units)
         1           W   tau(   1) = (  -0.0000005   0.5773506   1.1322981  )
         2           W   tau(   2) = (   0.5000005   0.2886748   3.3968987  )
         3           Se  tau(   3) = (   0.5000005   0.2886748   1.6376175  )
         4           Se  tau(   4) = (  -0.0000005   0.5773506   3.9022137  )
         5           Se  tau(   5) = (   0.5000005   0.2886748   0.6269831  )
         6           Se  tau(   6) = (  -0.0000005   0.5773506   2.8915793  )

   Crystallographic axes

     site n.     atom                  positions (cryst. coord.)
         1           W   tau(   1) = (  0.3333330  0.6666670  0.2499990  )
         2           W   tau(   2) = (  0.6666670  0.3333330  0.7499980  )
         3           Se  tau(   3) = (  0.6666670  0.3333330  0.3615680  )
         4           Se  tau(   4) = (  0.3333330  0.6666670  0.8615660  )
         5           Se  tau(   5) = (  0.6666670  0.3333330  0.1384310  )
         6           Se  tau(   6) = (  0.3333330  0.6666670  0.6384290  )

     number of k points=   270
                       cart. coord. in units 2pi/alat
        k(    1) = (   0.0000000   0.0000000   0.0000000), wk =   0.0004883
        k(    2) = (   0.0000000   0.0000000   0.0137993), wk =   0.0009766
        k(    3) = (   0.0000000   0.0000000   0.0275986), wk =   0.0009766
        k(    4) = (   0.0000000   0.0000000   0.0413979), wk =   0.0009766
        k(    5) = (   0.0000000   0.0000000   0.0551973), wk =   0.0009766
        k(    6) = (   0.0000000   0.0000000   0.0689966), wk =   0.0009766
        k(    7) = (   0.0000000   0.0000000   0.0827959), wk =   0.0009766
        k(    8) = (   0.0000000   0.0000000   0.0965952), wk =   0.0009766
        k(    9) = (   0.0000000   0.0000000  -0.1103945), wk =   0.0004883
        k(   10) = (   0.0000000   0.0721688   0.0000000), wk =   0.0029297
        k(   11) = (   0.0000000   0.0721688   0.0137993), wk =   0.0058594
        k(   12) = (   0.0000000   0.0721688   0.0275986), wk =   0.0058594
        k(   13) = (   0.0000000   0.0721688   0.0413979), wk =   0.0058594
        k(   14) = (   0.0000000   0.0721688   0.0551973), wk =   0.0058594
        k(   15) = (   0.0000000   0.0721688   0.0689966), wk =   0.0058594
        k(   16) = (   0.0000000   0.0721688   0.0827959), wk =   0.0058594
        k(   17) = (   0.0000000   0.0721688   0.0965952), wk =   0.0058594
        k(   18) = (   0.0000000   0.0721688  -0.1103945), wk =   0.0029297
        k(   19) = (   0.0000000   0.1443376   0.0000000), wk =   0.0029297
        k(   20) = (   0.0000000   0.1443376   0.0137993), wk =   0.0058594
        k(   21) = (   0.0000000   0.1443376   0.0275986), wk =   0.0058594
        k(   22) = (   0.0000000   0.1443376   0.0413979), wk =   0.0058594
        k(   23) = (   0.0000000   0.1443376   0.0551973), wk =   0.0058594
        k(   24) = (   0.0000000   0.1443376   0.0689966), wk =   0.0058594
        k(   25) = (   0.0000000   0.1443376   0.0827959), wk =   0.0058594
        k(   26) = (   0.0000000   0.1443376   0.0965952), wk =   0.0058594
        k(   27) = (   0.0000000   0.1443376  -0.1103945), wk =   0.0029297
        k(   28) = (   0.0000000   0.2165064   0.0000000), wk =   0.0029297
        k(   29) = (   0.0000000   0.2165064   0.0137993), wk =   0.0058594
        k(   30) = (   0.0000000   0.2165064   0.0275986), wk =   0.0058594
        k(   31) = (   0.0000000   0.2165064   0.0413979), wk =   0.0058594
        k(   32) = (   0.0000000   0.2165064   0.0551973), wk =   0.0058594
        k(   33) = (   0.0000000   0.2165064   0.0689966), wk =   0.0058594
        k(   34) = (   0.0000000   0.2165064   0.0827959), wk =   0.0058594
        k(   35) = (   0.0000000   0.2165064   0.0965952), wk =   0.0058594
        k(   36) = (   0.0000000   0.2165064  -0.1103945), wk =   0.0029297
        k(   37) = (   0.0000000   0.2886751   0.0000000), wk =   0.0029297
        k(   38) = (   0.0000000   0.2886751   0.0137993), wk =   0.0058594
        k(   39) = (   0.0000000   0.2886751   0.0275986), wk =   0.0058594
        k(   40) = (   0.0000000   0.2886751   0.0413979), wk =   0.0058594
        k(   41) = (   0.0000000   0.2886751   0.0551973), wk =   0.0058594
        k(   42) = (   0.0000000   0.2886751   0.0689966), wk =   0.0058594
        k(   43) = (   0.0000000   0.2886751   0.0827959), wk =   0.0058594
        k(   44) = (   0.0000000   0.2886751   0.0965952), wk =   0.0058594
        k(   45) = (   0.0000000   0.2886751  -0.1103945), wk =   0.0029297
        k(   46) = (   0.0000000   0.3608439   0.0000000), wk =   0.0029297
        k(   47) = (   0.0000000   0.3608439   0.0137993), wk =   0.0058594
        k(   48) = (   0.0000000   0.3608439   0.0275986), wk =   0.0058594
        k(   49) = (   0.0000000   0.3608439   0.0413979), wk =   0.0058594
        k(   50) = (   0.0000000   0.3608439   0.0551973), wk =   0.0058594
        k(   51) = (   0.0000000   0.3608439   0.0689966), wk =   0.0058594
        k(   52) = (   0.0000000   0.3608439   0.0827959), wk =   0.0058594
        k(   53) = (   0.0000000   0.3608439   0.0965952), wk =   0.0058594
        k(   54) = (   0.0000000   0.3608439  -0.1103945), wk =   0.0029297
        k(   55) = (   0.0000000   0.4330127   0.0000000), wk =   0.0029297
        k(   56) = (   0.0000000   0.4330127   0.0137993), wk =   0.0058594
        k(   57) = (   0.0000000   0.4330127   0.0275986), wk =   0.0058594
        k(   58) = (   0.0000000   0.4330127   0.0413979), wk =   0.0058594
        k(   59) = (   0.0000000   0.4330127   0.0551973), wk =   0.0058594
        k(   60) = (   0.0000000   0.4330127   0.0689966), wk =   0.0058594
        k(   61) = (   0.0000000   0.4330127   0.0827959), wk =   0.0058594
        k(   62) = (   0.0000000   0.4330127   0.0965952), wk =   0.0058594
        k(   63) = (   0.0000000   0.4330127  -0.1103945), wk =   0.0029297
        k(   64) = (   0.0000000   0.5051815   0.0000000), wk =   0.0029297
        k(   65) = (   0.0000000   0.5051815   0.0137993), wk =   0.0058594
        k(   66) = (   0.0000000   0.5051815   0.0275986), wk =   0.0058594
        k(   67) = (   0.0000000   0.5051815   0.0413979), wk =   0.0058594
        k(   68) = (   0.0000000   0.5051815   0.0551973), wk =   0.0058594
        k(   69) = (   0.0000000   0.5051815   0.0689966), wk =   0.0058594
        k(   70) = (   0.0000000   0.5051815   0.0827959), wk =   0.0058594
        k(   71) = (   0.0000000   0.5051815   0.0965952), wk =   0.0058594
        k(   72) = (   0.0000000   0.5051815  -0.1103945), wk =   0.0029297
        k(   73) = (   0.0000000  -0.5773503   0.0000000), wk =   0.0014648
        k(   74) = (   0.0000000  -0.5773503   0.0137993), wk =   0.0029297
        k(   75) = (   0.0000000  -0.5773503   0.0275986), wk =   0.0029297
        k(   76) = (   0.0000000  -0.5773503   0.0413979), wk =   0.0029297
        k(   77) = (   0.0000000  -0.5773503   0.0551973), wk =   0.0029297
        k(   78) = (   0.0000000  -0.5773503   0.0689966), wk =   0.0029297
        k(   79) = (   0.0000000  -0.5773503   0.0827959), wk =   0.0029297
        k(   80) = (   0.0000000  -0.5773503   0.0965952), wk =   0.0029297
        k(   81) = (   0.0000000  -0.5773503  -0.1103945), wk =   0.0014648
        k(   82) = (   0.0625000   0.1082532   0.0000000), wk =   0.0029297
        k(   83) = (   0.0625000   0.1082532   0.0137993), wk =   0.0058594
        k(   84) = (   0.0625000   0.1082532   0.0275986), wk =   0.0058594
        k(   85) = (   0.0625000   0.1082532   0.0413979), wk =   0.0058594
        k(   86) = (   0.0625000   0.1082532   0.0551973), wk =   0.0058594
        k(   87) = (   0.0625000   0.1082532   0.0689966), wk =   0.0058594
        k(   88) = (   0.0625000   0.1082532   0.0827959), wk =   0.0058594
        k(   89) = (   0.0625000   0.1082532   0.0965952), wk =   0.0058594
        k(   90) = (   0.0625000   0.1082532  -0.1103945), wk =   0.0029297
        k(   91) = (   0.0625000   0.1804220   0.0000000), wk =   0.0058594
        k(   92) = (   0.0625000   0.1804220   0.0137993), wk =   0.0117188
        k(   93) = (   0.0625000   0.1804220   0.0275986), wk =   0.0117188
        k(   94) = (   0.0625000   0.1804220   0.0413979), wk =   0.0117188
        k(   95) = (   0.0625000   0.1804220   0.0551973), wk =   0.0117188
        k(   96) = (   0.0625000   0.1804220   0.0689966), wk =   0.0117188
        k(   97) = (   0.0625000   0.1804220   0.0827959), wk =   0.0117188
        k(   98) = (   0.0625000   0.1804220   0.0965952), wk =   0.0117188
        k(   99) = (   0.0625000   0.1804220  -0.1103945), wk =   0.0058594
        k(  100) = (   0.0625000   0.2525907   0.0000000), wk =   0.0058594
        k(  101) = (   0.0625000   0.2525907   0.0137993), wk =   0.0117188
        k(  102) = (   0.0625000   0.2525907   0.0275986), wk =   0.0117188
        k(  103) = (   0.0625000   0.2525907   0.0413979), wk =   0.0117188
        k(  104) = (   0.0625000   0.2525907   0.0551973), wk =   0.0117188
        k(  105) = (   0.0625000   0.2525907   0.0689966), wk =   0.0117188
        k(  106) = (   0.0625000   0.2525907   0.0827959), wk =   0.0117188
        k(  107) = (   0.0625000   0.2525907   0.0965952), wk =   0.0117188
        k(  108) = (   0.0625000   0.2525907  -0.1103945), wk =   0.0058594
        k(  109) = (   0.0625000   0.3247595   0.0000000), wk =   0.0058594
        k(  110) = (   0.0625000   0.3247595   0.0137993), wk =   0.0117188
        k(  111) = (   0.0625000   0.3247595   0.0275986), wk =   0.0117188
        k(  112) = (   0.0625000   0.3247595   0.0413979), wk =   0.0117188
        k(  113) = (   0.0625000   0.3247595   0.0551973), wk =   0.0117188
        k(  114) = (   0.0625000   0.3247595   0.0689966), wk =   0.0117188
        k(  115) = (   0.0625000   0.3247595   0.0827959), wk =   0.0117188
        k(  116) = (   0.0625000   0.3247595   0.0965952), wk =   0.0117188
        k(  117) = (   0.0625000   0.3247595  -0.1103945), wk =   0.0058594
        k(  118) = (   0.0625000   0.3969283   0.0000000), wk =   0.0058594
        k(  119) = (   0.0625000   0.3969283   0.0137993), wk =   0.0117188
        k(  120) = (   0.0625000   0.3969283   0.0275986), wk =   0.0117188
        k(  121) = (   0.0625000   0.3969283   0.0413979), wk =   0.0117188
        k(  122) = (   0.0625000   0.3969283   0.0551973), wk =   0.0117188
        k(  123) = (   0.0625000   0.3969283   0.0689966), wk =   0.0117188
        k(  124) = (   0.0625000   0.3969283   0.0827959), wk =   0.0117188
        k(  125) = (   0.0625000   0.3969283   0.0965952), wk =   0.0117188
        k(  126) = (   0.0625000   0.3969283  -0.1103945), wk =   0.0058594
        k(  127) = (   0.0625000   0.4690971   0.0000000), wk =   0.0058594
        k(  128) = (   0.0625000   0.4690971   0.0137993), wk =   0.0117188
        k(  129) = (   0.0625000   0.4690971   0.0275986), wk =   0.0117188
        k(  130) = (   0.0625000   0.4690971   0.0413979), wk =   0.0117188
        k(  131) = (   0.0625000   0.4690971   0.0551973), wk =   0.0117188
        k(  132) = (   0.0625000   0.4690971   0.0689966), wk =   0.0117188
        k(  133) = (   0.0625000   0.4690971   0.0827959), wk =   0.0117188
        k(  134) = (   0.0625000   0.4690971   0.0965952), wk =   0.0117188
        k(  135) = (   0.0625000   0.4690971  -0.1103945), wk =   0.0058594
        k(  136) = (   0.0625000   0.5412659   0.0000000), wk =   0.0058594
        k(  137) = (   0.0625000   0.5412659   0.0137993), wk =   0.0117188
        k(  138) = (   0.0625000   0.5412659   0.0275986), wk =   0.0117188
        k(  139) = (   0.0625000   0.5412659   0.0413979), wk =   0.0117188
        k(  140) = (   0.0625000   0.5412659   0.0551973), wk =   0.0117188
        k(  141) = (   0.0625000   0.5412659   0.0689966), wk =   0.0117188
        k(  142) = (   0.0625000   0.5412659   0.0827959), wk =   0.0117188
        k(  143) = (   0.0625000   0.5412659   0.0965952), wk =   0.0117188
        k(  144) = (   0.0625000   0.5412659  -0.1103945), wk =   0.0058594
        k(  145) = (   0.1250000   0.2165064   0.0000000), wk =   0.0029297
        k(  146) = (   0.1250000   0.2165064   0.0137993), wk =   0.0058594
        k(  147) = (   0.1250000   0.2165064   0.0275986), wk =   0.0058594
        k(  148) = (   0.1250000   0.2165064   0.0413979), wk =   0.0058594
        k(  149) = (   0.1250000   0.2165064   0.0551973), wk =   0.0058594
        k(  150) = (   0.1250000   0.2165064   0.0689966), wk =   0.0058594
        k(  151) = (   0.1250000   0.2165064   0.0827959), wk =   0.0058594
        k(  152) = (   0.1250000   0.2165064   0.0965952), wk =   0.0058594
        k(  153) = (   0.1250000   0.2165064  -0.1103945), wk =   0.0029297
        k(  154) = (   0.1250000   0.2886751   0.0000000), wk =   0.0058594
        k(  155) = (   0.1250000   0.2886751   0.0137993), wk =   0.0117188
        k(  156) = (   0.1250000   0.2886751   0.0275986), wk =   0.0117188
        k(  157) = (   0.1250000   0.2886751   0.0413979), wk =   0.0117188
        k(  158) = (   0.1250000   0.2886751   0.0551973), wk =   0.0117188
        k(  159) = (   0.1250000   0.2886751   0.0689966), wk =   0.0117188
        k(  160) = (   0.1250000   0.2886751   0.0827959), wk =   0.0117188
        k(  161) = (   0.1250000   0.2886751   0.0965952), wk =   0.0117188
        k(  162) = (   0.1250000   0.2886751  -0.1103945), wk =   0.0058594
        k(  163) = (   0.1250000   0.3608439   0.0000000), wk =   0.0058594
        k(  164) = (   0.1250000   0.3608439   0.0137993), wk =   0.0117188
        k(  165) = (   0.1250000   0.3608439   0.0275986), wk =   0.0117188
        k(  166) = (   0.1250000   0.3608439   0.0413979), wk =   0.0117188
        k(  167) = (   0.1250000   0.3608439   0.0551973), wk =   0.0117188
        k(  168) = (   0.1250000   0.3608439   0.0689966), wk =   0.0117188
        k(  169) = (   0.1250000   0.3608439   0.0827959), wk =   0.0117188
        k(  170) = (   0.1250000   0.3608439   0.0965952), wk =   0.0117188
        k(  171) = (   0.1250000   0.3608439  -0.1103945), wk =   0.0058594
        k(  172) = (   0.1250000   0.4330127   0.0000000), wk =   0.0058594
        k(  173) = (   0.1250000   0.4330127   0.0137993), wk =   0.0117188
        k(  174) = (   0.1250000   0.4330127   0.0275986), wk =   0.0117188
        k(  175) = (   0.1250000   0.4330127   0.0413979), wk =   0.0117188
        k(  176) = (   0.1250000   0.4330127   0.0551973), wk =   0.0117188
        k(  177) = (   0.1250000   0.4330127   0.0689966), wk =   0.0117188
        k(  178) = (   0.1250000   0.4330127   0.0827959), wk =   0.0117188
        k(  179) = (   0.1250000   0.4330127   0.0965952), wk =   0.0117188
        k(  180) = (   0.1250000   0.4330127  -0.1103945), wk =   0.0058594
        k(  181) = (   0.1250000   0.5051815   0.0000000), wk =   0.0058594
        k(  182) = (   0.1250000   0.5051815   0.0137993), wk =   0.0117188
        k(  183) = (   0.1250000   0.5051815   0.0275986), wk =   0.0117188
        k(  184) = (   0.1250000   0.5051815   0.0413979), wk =   0.0117188
        k(  185) = (   0.1250000   0.5051815   0.0551973), wk =   0.0117188
        k(  186) = (   0.1250000   0.5051815   0.0689966), wk =   0.0117188
        k(  187) = (   0.1250000   0.5051815   0.0827959), wk =   0.0117188
        k(  188) = (   0.1250000   0.5051815   0.0965952), wk =   0.0117188
        k(  189) = (   0.1250000   0.5051815  -0.1103945), wk =   0.0058594
        k(  190) = (   0.1250000   0.5773503   0.0000000), wk =   0.0029297
        k(  191) = (   0.1250000   0.5773503   0.0137993), wk =   0.0058594
        k(  192) = (   0.1250000   0.5773503   0.0275986), wk =   0.0058594
        k(  193) = (   0.1250000   0.5773503   0.0413979), wk =   0.0058594
        k(  194) = (   0.1250000   0.5773503   0.0551973), wk =   0.0058594
        k(  195) = (   0.1250000   0.5773503   0.0689966), wk =   0.0058594
        k(  196) = (   0.1250000   0.5773503   0.0827959), wk =   0.0058594
        k(  197) = (   0.1250000   0.5773503   0.0965952), wk =   0.0058594
        k(  198) = (   0.1250000   0.5773503  -0.1103945), wk =   0.0029297
        k(  199) = (   0.1875000   0.3247595   0.0000000), wk =   0.0029297
        k(  200) = (   0.1875000   0.3247595   0.0137993), wk =   0.0058594
        k(  201) = (   0.1875000   0.3247595   0.0275986), wk =   0.0058594
        k(  202) = (   0.1875000   0.3247595   0.0413979), wk =   0.0058594
        k(  203) = (   0.1875000   0.3247595   0.0551973), wk =   0.0058594
        k(  204) = (   0.1875000   0.3247595   0.0689966), wk =   0.0058594
        k(  205) = (   0.1875000   0.3247595   0.0827959), wk =   0.0058594
        k(  206) = (   0.1875000   0.3247595   0.0965952), wk =   0.0058594
        k(  207) = (   0.1875000   0.3247595  -0.1103945), wk =   0.0029297
        k(  208) = (   0.1875000   0.3969283   0.0000000), wk =   0.0058594
        k(  209) = (   0.1875000   0.3969283   0.0137993), wk =   0.0117188
        k(  210) = (   0.1875000   0.3969283   0.0275986), wk =   0.0117188
        k(  211) = (   0.1875000   0.3969283   0.0413979), wk =   0.0117188
        k(  212) = (   0.1875000   0.3969283   0.0551973), wk =   0.0117188
        k(  213) = (   0.1875000   0.3969283   0.0689966), wk =   0.0117188
        k(  214) = (   0.1875000   0.3969283   0.0827959), wk =   0.0117188
        k(  215) = (   0.1875000   0.3969283   0.0965952), wk =   0.0117188
        k(  216) = (   0.1875000   0.3969283  -0.1103945), wk =   0.0058594
        k(  217) = (   0.1875000   0.4690971   0.0000000), wk =   0.0058594
        k(  218) = (   0.1875000   0.4690971   0.0137993), wk =   0.0117188
        k(  219) = (   0.1875000   0.4690971   0.0275986), wk =   0.0117188
        k(  220) = (   0.1875000   0.4690971   0.0413979), wk =   0.0117188
        k(  221) = (   0.1875000   0.4690971   0.0551973), wk =   0.0117188
        k(  222) = (   0.1875000   0.4690971   0.0689966), wk =   0.0117188
        k(  223) = (   0.1875000   0.4690971   0.0827959), wk =   0.0117188
        k(  224) = (   0.1875000   0.4690971   0.0965952), wk =   0.0117188
        k(  225) = (   0.1875000   0.4690971  -0.1103945), wk =   0.0058594
        k(  226) = (   0.1875000   0.5412659   0.0000000), wk =   0.0058594
        k(  227) = (   0.1875000   0.5412659   0.0137993), wk =   0.0117188
        k(  228) = (   0.1875000   0.5412659   0.0275986), wk =   0.0117188
        k(  229) = (   0.1875000   0.5412659   0.0413979), wk =   0.0117188
        k(  230) = (   0.1875000   0.5412659   0.0551973), wk =   0.0117188
        k(  231) = (   0.1875000   0.5412659   0.0689966), wk =   0.0117188
        k(  232) = (   0.1875000   0.5412659   0.0827959), wk =   0.0117188
        k(  233) = (   0.1875000   0.5412659   0.0965952), wk =   0.0117188
        k(  234) = (   0.1875000   0.5412659  -0.1103945), wk =   0.0058594
        k(  235) = (   0.2500000   0.4330127   0.0000000), wk =   0.0029297
        k(  236) = (   0.2500000   0.4330127   0.0137993), wk =   0.0058594
        k(  237) = (   0.2500000   0.4330127   0.0275986), wk =   0.0058594
        k(  238) = (   0.2500000   0.4330127   0.0413979), wk =   0.0058594
        k(  239) = (   0.2500000   0.4330127   0.0551973), wk =   0.0058594
        k(  240) = (   0.2500000   0.4330127   0.0689966), wk =   0.0058594
        k(  241) = (   0.2500000   0.4330127   0.0827959), wk =   0.0058594
        k(  242) = (   0.2500000   0.4330127   0.0965952), wk =   0.0058594
        k(  243) = (   0.2500000   0.4330127  -0.1103945), wk =   0.0029297
        k(  244) = (   0.2500000   0.5051815   0.0000000), wk =   0.0058594
        k(  245) = (   0.2500000   0.5051815   0.0137993), wk =   0.0117188
        k(  246) = (   0.2500000   0.5051815   0.0275986), wk =   0.0117188
        k(  247) = (   0.2500000   0.5051815   0.0413979), wk =   0.0117188
        k(  248) = (   0.2500000   0.5051815   0.0551973), wk =   0.0117188
        k(  249) = (   0.2500000   0.5051815   0.0689966), wk =   0.0117188
        k(  250) = (   0.2500000   0.5051815   0.0827959), wk =   0.0117188
        k(  251) = (   0.2500000   0.5051815   0.0965952), wk =   0.0117188
        k(  252) = (   0.2500000   0.5051815  -0.1103945), wk =   0.0058594
        k(  253) = (   0.2500000   0.5773503   0.0000000), wk =   0.0029297
        k(  254) = (   0.2500000   0.5773503   0.0137993), wk =   0.0058594
        k(  255) = (   0.2500000   0.5773503   0.0275986), wk =   0.0058594
        k(  256) = (   0.2500000   0.5773503   0.0413979), wk =   0.0058594
        k(  257) = (   0.2500000   0.5773503   0.0551973), wk =   0.0058594
        k(  258) = (   0.2500000   0.5773503   0.0689966), wk =   0.0058594
        k(  259) = (   0.2500000   0.5773503   0.0827959), wk =   0.0058594
        k(  260) = (   0.2500000   0.5773503   0.0965952), wk =   0.0058594
        k(  261) = (   0.2500000   0.5773503  -0.1103945), wk =   0.0029297
        k(  262) = (   0.3125000   0.5412659   0.0000000), wk =   0.0029297
        k(  263) = (   0.3125000   0.5412659   0.0137993), wk =   0.0058594
        k(  264) = (   0.3125000   0.5412659   0.0275986), wk =   0.0058594
        k(  265) = (   0.3125000   0.5412659   0.0413979), wk =   0.0058594
        k(  266) = (   0.3125000   0.5412659   0.0551973), wk =   0.0058594
        k(  267) = (   0.3125000   0.5412659   0.0689966), wk =   0.0058594
        k(  268) = (   0.3125000   0.5412659   0.0827959), wk =   0.0058594
        k(  269) = (   0.3125000   0.5412659   0.0965952), wk =   0.0058594
        k(  270) = (   0.3125000   0.5412659  -0.1103945), wk =   0.0029297

                       cryst. coord.
        k(    1) = (   0.0000000   0.0000000   0.0000000), wk =   0.0004883
        k(    2) = (   0.0000000   0.0000000   0.0625000), wk =   0.0009766
        k(    3) = (   0.0000000   0.0000000   0.1250000), wk =   0.0009766
        k(    4) = (   0.0000000   0.0000000   0.1875000), wk =   0.0009766
        k(    5) = (   0.0000000   0.0000000   0.2500000), wk =   0.0009766
        k(    6) = (   0.0000000   0.0000000   0.3125000), wk =   0.0009766
        k(    7) = (   0.0000000   0.0000000   0.3750000), wk =   0.0009766
        k(    8) = (   0.0000000   0.0000000   0.4375000), wk =   0.0009766
        k(    9) = (   0.0000000   0.0000000  -0.5000000), wk =   0.0004883
        k(   10) = (   0.0000000   0.0625000   0.0000000), wk =   0.0029297
        k(   11) = (   0.0000000   0.0625000   0.0625000), wk =   0.0058594
        k(   12) = (   0.0000000   0.0625000   0.1250000), wk =   0.0058594
        k(   13) = (   0.0000000   0.0625000   0.1875000), wk =   0.0058594
        k(   14) = (   0.0000000   0.0625000   0.2500000), wk =   0.0058594
        k(   15) = (   0.0000000   0.0625000   0.3125000), wk =   0.0058594
        k(   16) = (   0.0000000   0.0625000   0.3750000), wk =   0.0058594
        k(   17) = (   0.0000000   0.0625000   0.4375000), wk =   0.0058594
        k(   18) = (   0.0000000   0.0625000  -0.5000000), wk =   0.0029297
        k(   19) = (   0.0000000   0.1250000   0.0000000), wk =   0.0029297
        k(   20) = (   0.0000000   0.1250000   0.0625000), wk =   0.0058594
        k(   21) = (   0.0000000   0.1250000   0.1250000), wk =   0.0058594
        k(   22) = (   0.0000000   0.1250000   0.1875000), wk =   0.0058594
        k(   23) = (   0.0000000   0.1250000   0.2500000), wk =   0.0058594
        k(   24) = (   0.0000000   0.1250000   0.3125000), wk =   0.0058594
        k(   25) = (   0.0000000   0.1250000   0.3750000), wk =   0.0058594
        k(   26) = (   0.0000000   0.1250000   0.4375000), wk =   0.0058594
        k(   27) = (   0.0000000   0.1250000  -0.5000000), wk =   0.0029297
        k(   28) = (   0.0000000   0.1875000   0.0000000), wk =   0.0029297
        k(   29) = (   0.0000000   0.1875000   0.0625000), wk =   0.0058594
        k(   30) = (   0.0000000   0.1875000   0.1250000), wk =   0.0058594
        k(   31) = (   0.0000000   0.1875000   0.1875000), wk =   0.0058594
        k(   32) = (   0.0000000   0.1875000   0.2500000), wk =   0.0058594
        k(   33) = (   0.0000000   0.1875000   0.3125000), wk =   0.0058594
        k(   34) = (   0.0000000   0.1875000   0.3750000), wk =   0.0058594
        k(   35) = (   0.0000000   0.1875000   0.4375000), wk =   0.0058594
        k(   36) = (   0.0000000   0.1875000  -0.5000000), wk =   0.0029297
        k(   37) = (   0.0000000   0.2500000   0.0000000), wk =   0.0029297
        k(   38) = (   0.0000000   0.2500000   0.0625000), wk =   0.0058594
        k(   39) = (   0.0000000   0.2500000   0.1250000), wk =   0.0058594
        k(   40) = (   0.0000000   0.2500000   0.1875000), wk =   0.0058594
        k(   41) = (   0.0000000   0.2500000   0.2500000), wk =   0.0058594
        k(   42) = (   0.0000000   0.2500000   0.3125000), wk =   0.0058594
        k(   43) = (   0.0000000   0.2500000   0.3750000), wk =   0.0058594
        k(   44) = (   0.0000000   0.2500000   0.4375000), wk =   0.0058594
        k(   45) = (   0.0000000   0.2500000  -0.5000000), wk =   0.0029297
        k(   46) = (   0.0000000   0.3125000   0.0000000), wk =   0.0029297
        k(   47) = (   0.0000000   0.3125000   0.0625000), wk =   0.0058594
        k(   48) = (   0.0000000   0.3125000   0.1250000), wk =   0.0058594
        k(   49) = (   0.0000000   0.3125000   0.1875000), wk =   0.0058594
        k(   50) = (   0.0000000   0.3125000   0.2500000), wk =   0.0058594
        k(   51) = (   0.0000000   0.3125000   0.3125000), wk =   0.0058594
        k(   52) = (   0.0000000   0.3125000   0.3750000), wk =   0.0058594
        k(   53) = (   0.0000000   0.3125000   0.4375000), wk =   0.0058594
        k(   54) = (   0.0000000   0.3125000  -0.5000000), wk =   0.0029297
        k(   55) = (   0.0000000   0.3750000   0.0000000), wk =   0.0029297
        k(   56) = (   0.0000000   0.3750000   0.0625000), wk =   0.0058594
        k(   57) = (   0.0000000   0.3750000   0.1250000), wk =   0.0058594
        k(   58) = (   0.0000000   0.3750000   0.1875000), wk =   0.0058594
        k(   59) = (   0.0000000   0.3750000   0.2500000), wk =   0.0058594
        k(   60) = (   0.0000000   0.3750000   0.3125000), wk =   0.0058594
        k(   61) = (   0.0000000   0.3750000   0.3750000), wk =   0.0058594
        k(   62) = (   0.0000000   0.3750000   0.4375000), wk =   0.0058594
        k(   63) = (   0.0000000   0.3750000  -0.5000000), wk =   0.0029297
        k(   64) = (   0.0000000   0.4375000   0.0000000), wk =   0.0029297
        k(   65) = (   0.0000000   0.4375000   0.0625000), wk =   0.0058594
        k(   66) = (   0.0000000   0.4375000   0.1250000), wk =   0.0058594
        k(   67) = (   0.0000000   0.4375000   0.1875000), wk =   0.0058594
        k(   68) = (   0.0000000   0.4375000   0.2500000), wk =   0.0058594
        k(   69) = (   0.0000000   0.4375000   0.3125000), wk =   0.0058594
        k(   70) = (   0.0000000   0.4375000   0.3750000), wk =   0.0058594
        k(   71) = (   0.0000000   0.4375000   0.4375000), wk =   0.0058594
        k(   72) = (   0.0000000   0.4375000  -0.5000000), wk =   0.0029297
        k(   73) = (   0.0000000  -0.5000000   0.0000000), wk =   0.0014648
        k(   74) = (   0.0000000  -0.5000000   0.0625000), wk =   0.0029297
        k(   75) = (   0.0000000  -0.5000000   0.1250000), wk =   0.0029297
        k(   76) = (   0.0000000  -0.5000000   0.1875000), wk =   0.0029297
        k(   77) = (   0.0000000  -0.5000000   0.2500000), wk =   0.0029297
        k(   78) = (   0.0000000  -0.5000000   0.3125000), wk =   0.0029297
        k(   79) = (   0.0000000  -0.5000000   0.3750000), wk =   0.0029297
        k(   80) = (   0.0000000  -0.5000000   0.4375000), wk =   0.0029297
        k(   81) = (   0.0000000  -0.5000000  -0.5000000), wk =   0.0014648
        k(   82) = (   0.0625000   0.0625000   0.0000000), wk =   0.0029297
        k(   83) = (   0.0625000   0.0625000   0.0625000), wk =   0.0058594
        k(   84) = (   0.0625000   0.0625000   0.1250000), wk =   0.0058594
        k(   85) = (   0.0625000   0.0625000   0.1875000), wk =   0.0058594
        k(   86) = (   0.0625000   0.0625000   0.2500000), wk =   0.0058594
        k(   87) = (   0.0625000   0.0625000   0.3125000), wk =   0.0058594
        k(   88) = (   0.0625000   0.0625000   0.3750000), wk =   0.0058594
        k(   89) = (   0.0625000   0.0625000   0.4375000), wk =   0.0058594
        k(   90) = (   0.0625000   0.0625000  -0.5000000), wk =   0.0029297
        k(   91) = (   0.0625000   0.1250000   0.0000000), wk =   0.0058594
        k(   92) = (   0.0625000   0.1250000   0.0625000), wk =   0.0117188
        k(   93) = (   0.0625000   0.1250000   0.1250000), wk =   0.0117188
        k(   94) = (   0.0625000   0.1250000   0.1875000), wk =   0.0117188
        k(   95) = (   0.0625000   0.1250000   0.2500000), wk =   0.0117188
        k(   96) = (   0.0625000   0.1250000   0.3125000), wk =   0.0117188
        k(   97) = (   0.0625000   0.1250000   0.3750000), wk =   0.0117188
        k(   98) = (   0.0625000   0.1250000   0.4375000), wk =   0.0117188
        k(   99) = (   0.0625000   0.1250000  -0.5000000), wk =   0.0058594
        k(  100) = (   0.0625000   0.1875000   0.0000000), wk =   0.0058594
        k(  101) = (   0.0625000   0.1875000   0.0625000), wk =   0.0117188
        k(  102) = (   0.0625000   0.1875000   0.1250000), wk =   0.0117188
        k(  103) = (   0.0625000   0.1875000   0.1875000), wk =   0.0117188
        k(  104) = (   0.0625000   0.1875000   0.2500000), wk =   0.0117188
        k(  105) = (   0.0625000   0.1875000   0.3125000), wk =   0.0117188
        k(  106) = (   0.0625000   0.1875000   0.3750000), wk =   0.0117188
        k(  107) = (   0.0625000   0.1875000   0.4375000), wk =   0.0117188
        k(  108) = (   0.0625000   0.1875000  -0.5000000), wk =   0.0058594
        k(  109) = (   0.0625000   0.2500000   0.0000000), wk =   0.0058594
        k(  110) = (   0.0625000   0.2500000   0.0625000), wk =   0.0117188
        k(  111) = (   0.0625000   0.2500000   0.1250000), wk =   0.0117188
        k(  112) = (   0.0625000   0.2500000   0.1875000), wk =   0.0117188
        k(  113) = (   0.0625000   0.2500000   0.2500000), wk =   0.0117188
        k(  114) = (   0.0625000   0.2500000   0.3125000), wk =   0.0117188
        k(  115) = (   0.0625000   0.2500000   0.3750000), wk =   0.0117188
        k(  116) = (   0.0625000   0.2500000   0.4375000), wk =   0.0117188
        k(  117) = (   0.0625000   0.2500000  -0.5000000), wk =   0.0058594
        k(  118) = (   0.0625000   0.3125000   0.0000000), wk =   0.0058594
        k(  119) = (   0.0625000   0.3125000   0.0625000), wk =   0.0117188
        k(  120) = (   0.0625000   0.3125000   0.1250000), wk =   0.0117188
        k(  121) = (   0.0625000   0.3125000   0.1875000), wk =   0.0117188
        k(  122) = (   0.0625000   0.3125000   0.2500000), wk =   0.0117188
        k(  123) = (   0.0625000   0.3125000   0.3125000), wk =   0.0117188
        k(  124) = (   0.0625000   0.3125000   0.3750000), wk =   0.0117188
        k(  125) = (   0.0625000   0.3125000   0.4375000), wk =   0.0117188
        k(  126) = (   0.0625000   0.3125000  -0.5000000), wk =   0.0058594
        k(  127) = (   0.0625000   0.3750000   0.0000000), wk =   0.0058594
        k(  128) = (   0.0625000   0.3750000   0.0625000), wk =   0.0117188
        k(  129) = (   0.0625000   0.3750000   0.1250000), wk =   0.0117188
        k(  130) = (   0.0625000   0.3750000   0.1875000), wk =   0.0117188
        k(  131) = (   0.0625000   0.3750000   0.2500000), wk =   0.0117188
        k(  132) = (   0.0625000   0.3750000   0.3125000), wk =   0.0117188
        k(  133) = (   0.0625000   0.3750000   0.3750000), wk =   0.0117188
        k(  134) = (   0.0625000   0.3750000   0.4375000), wk =   0.0117188
        k(  135) = (   0.0625000   0.3750000  -0.5000000), wk =   0.0058594
        k(  136) = (   0.0625000   0.4375000   0.0000000), wk =   0.0058594
        k(  137) = (   0.0625000   0.4375000   0.0625000), wk =   0.0117188
        k(  138) = (   0.0625000   0.4375000   0.1250000), wk =   0.0117188
        k(  139) = (   0.0625000   0.4375000   0.1875000), wk =   0.0117188
        k(  140) = (   0.0625000   0.4375000   0.2500000), wk =   0.0117188
        k(  141) = (   0.0625000   0.4375000   0.3125000), wk =   0.0117188
        k(  142) = (   0.0625000   0.4375000   0.3750000), wk =   0.0117188
        k(  143) = (   0.0625000   0.4375000   0.4375000), wk =   0.0117188
        k(  144) = (   0.0625000   0.4375000  -0.5000000), wk =   0.0058594
        k(  145) = (   0.1250000   0.1250000   0.0000000), wk =   0.0029297
        k(  146) = (   0.1250000   0.1250000   0.0625000), wk =   0.0058594
        k(  147) = (   0.1250000   0.1250000   0.1250000), wk =   0.0058594
        k(  148) = (   0.1250000   0.1250000   0.1875000), wk =   0.0058594
        k(  149) = (   0.1250000   0.1250000   0.2500000), wk =   0.0058594
        k(  150) = (   0.1250000   0.1250000   0.3125000), wk =   0.0058594
        k(  151) = (   0.1250000   0.1250000   0.3750000), wk =   0.0058594
        k(  152) = (   0.1250000   0.1250000   0.4375000), wk =   0.0058594
        k(  153) = (   0.1250000   0.1250000  -0.5000000), wk =   0.0029297
        k(  154) = (   0.1250000   0.1875000   0.0000000), wk =   0.0058594
        k(  155) = (   0.1250000   0.1875000   0.0625000), wk =   0.0117188
        k(  156) = (   0.1250000   0.1875000   0.1250000), wk =   0.0117188
        k(  157) = (   0.1250000   0.1875000   0.1875000), wk =   0.0117188
        k(  158) = (   0.1250000   0.1875000   0.2500000), wk =   0.0117188
        k(  159) = (   0.1250000   0.1875000   0.3125000), wk =   0.0117188
        k(  160) = (   0.1250000   0.1875000   0.3750000), wk =   0.0117188
        k(  161) = (   0.1250000   0.1875000   0.4375000), wk =   0.0117188
        k(  162) = (   0.1250000   0.1875000  -0.5000000), wk =   0.0058594
        k(  163) = (   0.1250000   0.2500000   0.0000000), wk =   0.0058594
        k(  164) = (   0.1250000   0.2500000   0.0625000), wk =   0.0117188
        k(  165) = (   0.1250000   0.2500000   0.1250000), wk =   0.0117188
        k(  166) = (   0.1250000   0.2500000   0.1875000), wk =   0.0117188
        k(  167) = (   0.1250000   0.2500000   0.2500000), wk =   0.0117188
        k(  168) = (   0.1250000   0.2500000   0.3125000), wk =   0.0117188
        k(  169) = (   0.1250000   0.2500000   0.3750000), wk =   0.0117188
        k(  170) = (   0.1250000   0.2500000   0.4375000), wk =   0.0117188
        k(  171) = (   0.1250000   0.2500000  -0.5000000), wk =   0.0058594
        k(  172) = (   0.1250000   0.3125000   0.0000000), wk =   0.0058594
        k(  173) = (   0.1250000   0.3125000   0.0625000), wk =   0.0117188
        k(  174) = (   0.1250000   0.3125000   0.1250000), wk =   0.0117188
        k(  175) = (   0.1250000   0.3125000   0.1875000), wk =   0.0117188
        k(  176) = (   0.1250000   0.3125000   0.2500000), wk =   0.0117188
        k(  177) = (   0.1250000   0.3125000   0.3125000), wk =   0.0117188
        k(  178) = (   0.1250000   0.3125000   0.3750000), wk =   0.0117188
        k(  179) = (   0.1250000   0.3125000   0.4375000), wk =   0.0117188
        k(  180) = (   0.1250000   0.3125000  -0.5000000), wk =   0.0058594
        k(  181) = (   0.1250000   0.3750000   0.0000000), wk =   0.0058594
        k(  182) = (   0.1250000   0.3750000   0.0625000), wk =   0.0117188
        k(  183) = (   0.1250000   0.3750000   0.1250000), wk =   0.0117188
        k(  184) = (   0.1250000   0.3750000   0.1875000), wk =   0.0117188
        k(  185) = (   0.1250000   0.3750000   0.2500000), wk =   0.0117188
        k(  186) = (   0.1250000   0.3750000   0.3125000), wk =   0.0117188
        k(  187) = (   0.1250000   0.3750000   0.3750000), wk =   0.0117188
        k(  188) = (   0.1250000   0.3750000   0.4375000), wk =   0.0117188
        k(  189) = (   0.1250000   0.3750000  -0.5000000), wk =   0.0058594
        k(  190) = (   0.1250000   0.4375000   0.0000000), wk =   0.0029297
        k(  191) = (   0.1250000   0.4375000   0.0625000), wk =   0.0058594
        k(  192) = (   0.1250000   0.4375000   0.1250000), wk =   0.0058594
        k(  193) = (   0.1250000   0.4375000   0.1875000), wk =   0.0058594
        k(  194) = (   0.1250000   0.4375000   0.2500000), wk =   0.0058594
        k(  195) = (   0.1250000   0.4375000   0.3125000), wk =   0.0058594
        k(  196) = (   0.1250000   0.4375000   0.3750000), wk =   0.0058594
        k(  197) = (   0.1250000   0.4375000   0.4375000), wk =   0.0058594
        k(  198) = (   0.1250000   0.4375000  -0.5000000), wk =   0.0029297
        k(  199) = (   0.1875000   0.1875000   0.0000000), wk =   0.0029297
        k(  200) = (   0.1875000   0.1875000   0.0625000), wk =   0.0058594
        k(  201) = (   0.1875000   0.1875000   0.1250000), wk =   0.0058594
        k(  202) = (   0.1875000   0.1875000   0.1875000), wk =   0.0058594
        k(  203) = (   0.1875000   0.1875000   0.2500000), wk =   0.0058594
        k(  204) = (   0.1875000   0.1875000   0.3125000), wk =   0.0058594
        k(  205) = (   0.1875000   0.1875000   0.3750000), wk =   0.0058594
        k(  206) = (   0.1875000   0.1875000   0.4375000), wk =   0.0058594
        k(  207) = (   0.1875000   0.1875000  -0.5000000), wk =   0.0029297
        k(  208) = (   0.1875000   0.2500000   0.0000000), wk =   0.0058594
        k(  209) = (   0.1875000   0.2500000   0.0625000), wk =   0.0117188
        k(  210) = (   0.1875000   0.2500000   0.1250000), wk =   0.0117188
        k(  211) = (   0.1875000   0.2500000   0.1875000), wk =   0.0117188
        k(  212) = (   0.1875000   0.2500000   0.2500000), wk =   0.0117188
        k(  213) = (   0.1875000   0.2500000   0.3125000), wk =   0.0117188
        k(  214) = (   0.1875000   0.2500000   0.3750000), wk =   0.0117188
        k(  215) = (   0.1875000   0.2500000   0.4375000), wk =   0.0117188
        k(  216) = (   0.1875000   0.2500000  -0.5000000), wk =   0.0058594
        k(  217) = (   0.1875000   0.3125000   0.0000000), wk =   0.0058594
        k(  218) = (   0.1875000   0.3125000   0.0625000), wk =   0.0117188
        k(  219) = (   0.1875000   0.3125000   0.1250000), wk =   0.0117188
        k(  220) = (   0.1875000   0.3125000   0.1875000), wk =   0.0117188
        k(  221) = (   0.1875000   0.3125000   0.2500000), wk =   0.0117188
        k(  222) = (   0.1875000   0.3125000   0.3125000), wk =   0.0117188
        k(  223) = (   0.1875000   0.3125000   0.3750000), wk =   0.0117188
        k(  224) = (   0.1875000   0.3125000   0.4375000), wk =   0.0117188
        k(  225) = (   0.1875000   0.3125000  -0.5000000), wk =   0.0058594
        k(  226) = (   0.1875000   0.3750000   0.0000000), wk =   0.0058594
        k(  227) = (   0.1875000   0.3750000   0.0625000), wk =   0.0117188
        k(  228) = (   0.1875000   0.3750000   0.1250000), wk =   0.0117188
        k(  229) = (   0.1875000   0.3750000   0.1875000), wk =   0.0117188
        k(  230) = (   0.1875000   0.3750000   0.2500000), wk =   0.0117188
        k(  231) = (   0.1875000   0.3750000   0.3125000), wk =   0.0117188
        k(  232) = (   0.1875000   0.3750000   0.3750000), wk =   0.0117188
        k(  233) = (   0.1875000   0.3750000   0.4375000), wk =   0.0117188
        k(  234) = (   0.1875000   0.3750000  -0.5000000), wk =   0.0058594
        k(  235) = (   0.2500000   0.2500000   0.0000000), wk =   0.0029297
        k(  236) = (   0.2500000   0.2500000   0.0625000), wk =   0.0058594
        k(  237) = (   0.2500000   0.2500000   0.1250000), wk =   0.0058594
        k(  238) = (   0.2500000   0.2500000   0.1875000), wk =   0.0058594
        k(  239) = (   0.2500000   0.2500000   0.2500000), wk =   0.0058594
        k(  240) = (   0.2500000   0.2500000   0.3125000), wk =   0.0058594
        k(  241) = (   0.2500000   0.2500000   0.3750000), wk =   0.0058594
        k(  242) = (   0.2500000   0.2500000   0.4375000), wk =   0.0058594
        k(  243) = (   0.2500000   0.2500000  -0.5000000), wk =   0.0029297
        k(  244) = (   0.2500000   0.3125000   0.0000000), wk =   0.0058594
        k(  245) = (   0.2500000   0.3125000   0.0625000), wk =   0.0117188
        k(  246) = (   0.2500000   0.3125000   0.1250000), wk =   0.0117188
        k(  247) = (   0.2500000   0.3125000   0.1875000), wk =   0.0117188
        k(  248) = (   0.2500000   0.3125000   0.2500000), wk =   0.0117188
        k(  249) = (   0.2500000   0.3125000   0.3125000), wk =   0.0117188
        k(  250) = (   0.2500000   0.3125000   0.3750000), wk =   0.0117188
        k(  251) = (   0.2500000   0.3125000   0.4375000), wk =   0.0117188
        k(  252) = (   0.2500000   0.3125000  -0.5000000), wk =   0.0058594
        k(  253) = (   0.2500000   0.3750000   0.0000000), wk =   0.0029297
        k(  254) = (   0.2500000   0.3750000   0.0625000), wk =   0.0058594
        k(  255) = (   0.2500000   0.3750000   0.1250000), wk =   0.0058594
        k(  256) = (   0.2500000   0.3750000   0.1875000), wk =   0.0058594
        k(  257) = (   0.2500000   0.3750000   0.2500000), wk =   0.0058594
        k(  258) = (   0.2500000   0.3750000   0.3125000), wk =   0.0058594
        k(  259) = (   0.2500000   0.3750000   0.3750000), wk =   0.0058594
        k(  260) = (   0.2500000   0.3750000   0.4375000), wk =   0.0058594
        k(  261) = (   0.2500000   0.3750000  -0.5000000), wk =   0.0029297
        k(  262) = (   0.3125000   0.3125000   0.0000000), wk =   0.0029297
        k(  263) = (   0.3125000   0.3125000   0.0625000), wk =   0.0058594
        k(  264) = (   0.3125000   0.3125000   0.1250000), wk =   0.0058594
        k(  265) = (   0.3125000   0.3125000   0.1875000), wk =   0.0058594
        k(  266) = (   0.3125000   0.3125000   0.2500000), wk =   0.0058594
        k(  267) = (   0.3125000   0.3125000   0.3125000), wk =   0.0058594
        k(  268) = (   0.3125000   0.3125000   0.3750000), wk =   0.0058594
        k(  269) = (   0.3125000   0.3125000   0.4375000), wk =   0.0058594
        k(  270) = (   0.3125000   0.3125000  -0.5000000), wk =   0.0029297

     Dense  grid:   170417 G-vectors     FFT dimensions: (  45,  45, 200)

     Smooth grid:    46575 G-vectors     FFT dimensions: (  30,  30, 144)

     Dynamical RAM for                 wfc:       1.02 MB

     Dynamical RAM for     wfc (w. buffer):     276.76 MB

     Dynamical RAM for           str. fact:       1.30 MB

     Dynamical RAM for           local pot:       0.00 MB

     Dynamical RAM for          nlocal pot:       2.40 MB

     Dynamical RAM for                qrad:       3.50 MB

     Dynamical RAM for          rho,v,vnew:       4.27 MB

     Dynamical RAM for               rhoin:       1.42 MB

     Dynamical RAM for            rho*nmix:      10.40 MB

     Dynamical RAM for           G-vectors:       2.53 MB

     Dynamical RAM for          h,s,v(r/c):       0.10 MB

     Dynamical RAM for          <psi|beta>:       0.08 MB

     Dynamical RAM for                 psi:       2.04 MB

     Dynamical RAM for                hpsi:       2.04 MB

     Dynamical RAM for                spsi:       2.04 MB

     Dynamical RAM for      wfcinit/wfcrot:       2.09 MB

     Dynamical RAM for           addusdens:     123.50 MB

     Dynamical RAM for          addusforce:     127.74 MB

     Estimated static dynamical RAM per process >     308.39 MB

     Estimated max dynamical RAM per process >     436.12 MB

     Estimated total dynamical RAM >       1.70 GB

     Atomic positions and unit cell read from directory:
     ./tmp/WSe2.save/


     The initial density is read from file :
     ./tmp/WSe2.save/charge-density


     negative rho (up, down):  2.793E-04 0.000E+00
     Starting wfcs from file
     Checking if some PAW data can be deallocated... 
       PAW data deallocated on    3 nodes for type:  1
       PAW data deallocated on    1 nodes for type:  2

     total cpu time spent up to now is        7.5 secs

     Self-consistent Calculation

     iteration #  1     ecut=    50.00 Ry     beta= 0.60
     Davidson diagonalization with overlap
     ethr =  1.00E-05,  avg # of iterations =  1.0

     Threshold (ethr) on eigenvalues was too large:
     Diagonalizing with lowered threshold

     Davidson diagonalization with overlap
     ethr =  6.26E-11,  avg # of iterations =  4.5

     negative rho (up, down):  2.799E-04 0.000E+00

     total cpu time spent up to now is      311.2 secs

     total energy              =   -3127.98806802 Ry
     estimated scf accuracy    <       0.00000011 Ry

     iteration #  2     ecut=    50.00 Ry     beta= 0.60
     Davidson diagonalization with overlap
     ethr =  1.24E-10,  avg # of iterations =  6.7

     negative rho (up, down):  2.792E-04 0.000E+00

     total cpu time spent up to now is      551.2 secs

     total energy              =   -3127.98806798 Ry
     estimated scf accuracy    <       0.00000088 Ry

     iteration #  3     ecut=    50.00 Ry     beta= 0.60
     Davidson diagonalization with overlap
     ethr =  1.24E-10,  avg # of iterations =  5.6

     negative rho (up, down):  2.796E-04 0.000E+00

     total cpu time spent up to now is      776.3 secs

     End of self-consistent calculation

          k = 0.0000 0.0000 0.0000 (  5771 PWs)   bands (ev):

   -64.6286 -64.6284 -38.0462 -38.0462 -38.0424 -38.0424 -38.0397 -38.0397
   -38.0362 -38.0362 -38.0138 -38.0137 -38.0102 -38.0102 -38.0069 -38.0069
   -38.0036 -38.0036 -37.9995 -37.9959 -37.9928 -37.9894 -28.8342 -28.8340
   -28.7318 -28.7318 -28.7316 -28.7316  -5.1831  -5.1528  -3.9798  -3.9255
     3.2628   3.5220   6.9332   7.1704   7.1704   7.1720   7.1720   7.8028
     8.2567   8.2568   8.2618   8.2620   8.9533   9.4392

     occupation numbers 
     1.0000   1.0000   1.0000   1.0000   1.0000   1.0000   1.0000   1.0000
     1.0000   1.0000   1.0000   1.0000   1.0000   1.0000   1.0000   1.0000
     1.0000   1.0000   1.0000   1.0000   1.0000   1.0000   1.0000   1.0000
     1.0000   1.0000   1.0000   1.0000   1.0000   1.0000   1.0000   1.0000
     1.0000   1.0000   1.0000   1.0000   1.0000   1.0000   1.0000   1.0000
     1.0000   1.0000   1.0000   1.0000   1.0000   1.0000

          k = 0.0000 0.0000 0.0138 (  5782 PWs)   bands (ev):

   -64.6287 -64.6284 -38.0463 -38.0463 -38.0425 -38.0425 -38.0397 -38.0397
   -38.0362 -38.0362 -38.0139 -38.0139 -38.0103 -38.0103 -38.0070 -38.0070
   -38.0037 -38.0037 -37.9996 -37.9959 -37.9928 -37.9895 -28.8342 -28.8340
   -28.7319 -28.7318 -28.7316 -28.7316  -5.1828  -5.1531  -3.9793  -3.9260
     3.2650   3.5192   6.9401   7.1704   7.1705   7.1720   7.1720   7.7910
     8.2568   8.2569   8.2618   8.2619   8.9617   9.4363

     occupation numbers 
     1.0000   1.0000   1.0000   1.0000   1.0000   1.0000   1.0000   1.0000
     1.0000   1.0000   1.0000   1.0000   1.0000   1.0000   1.0000   1.0000
     1.0000   1.0000   1.0000   1.0000   1.0000   1.0000   1.0000   1.0000
     1.0000   1.0000   1.0000   1.0000   1.0000   1.0000   1.0000   1.0000
     1.0000   1.0000   1.0000   1.0000   1.0000   1.0000   1.0000   1.0000
     1.0000   1.0000   1.0000   1.0000   1.0000   1.0000

          k = 0.0000 0.0000 0.0276 (  5806 PWs)   bands (ev):

   -64.6287 -64.6284 -38.0463 -38.0463 -38.0425 -38.0425 -38.0397 -38.0397
   -38.0362 -38.0362 -38.0141 -38.0141 -38.0106 -38.0105 -38.0072 -38.0072
   -38.0039 -38.0039 -37.9998 -37.9962 -37.9932 -37.9898 -28.8343 -28.8341
   -28.7319 -28.7318 -28.7317 -28.7316  -5.1820  -5.1540  -3.9777  -3.9276
     3.2717   3.5110   6.9607   7.1705   7.1705   7.1720   7.1720   7.7571
     8.2569   8.2570   8.2616   8.2618   8.9854   9.4275

     occupation numbers 
     1.0000   1.0000   1.0000   1.0000   1.0000   1.0000   1.0000   1.0000
     1.0000   1.0000   1.0000   1.0000   1.0000   1.0000   1.0000   1.0000
     1.0000   1.0000   1.0000   1.0000   1.0000   1.0000   1.0000   1.0000
     1.0000   1.0000   1.0000   1.0000   1.0000   1.0000   1.0000   1.0000
     1.0000   1.0000   1.0000   1.0000   1.0000   1.0000   1.0000   1.0000
     1.0000   1.0000   1.0000   1.0000   1.0000   1.0000

          k = 0.0000 0.0000 0.0414 (  5806 PWs)   bands (ev):

   -64.6287 -64.6284 -38.0463 -38.0463 -38.0426 -38.0426 -38.0398 -38.0398
   -38.0363 -38.0363 -38.0140 -38.0140 -38.0104 -38.0104 -38.0072 -38.0072
   -38.0039 -38.0039 -37.9999 -37.9963 -37.9932 -37.9899 -28.8343 -28.8341
   -28.7319 -28.7319 -28.7317 -28.7317  -5.1806  -5.1555  -3.9752  -3.9300
     3.2827   3.4978   6.9942   7.1706   7.1706   7.1719   7.1719   7.7046
     8.2572   8.2573   8.2614   8.2615   9.0213   9.4129

     occupation numbers 
     1.0000   1.0000   1.0000   1.0000   1.0000   1.0000   1.0000   1.0000
     1.0000   1.0000   1.0000   1.0000   1.0000   1.0000   1.0000   1.0000
     1.0000   1.0000   1.0000   1.0000   1.0000   1.0000   1.0000   1.0000
     1.0000   1.0000   1.0000   1.0000   1.0000   1.0000   1.0000   1.0000
     1.0000   1.0000   1.0000   1.0000   1.0000   1.0000   1.0000   1.0000
     1.0000   1.0000   1.0000   1.0000   1.0000   1.0000

          k = 0.0000 0.0000 0.0552 (  5806 PWs)   bands (ev):

   -64.6287 -64.6284 -38.0463 -38.0463 -38.0425 -38.0425 -38.0398 -38.0398
   -38.0363 -38.0363 -38.0140 -38.0140 -38.0104 -38.0104 -38.0072 -38.0072
   -38.0039 -38.0039 -37.9999 -37.9963 -37.9932 -37.9899 -28.8343 -28.8341
   -28.7319 -28.7319 -28.7317 -28.7317  -5.1788  -5.1574  -3.9718  -3.9334
     3.2975   3.4803   7.0399   7.1707   7.1707   7.1718   7.1718   7.6381
     8.2575   8.2576   8.2611   8.2612   9.0653   9.3926

     occupation numbers 
     1.0000   1.0000   1.0000   1.0000   1.0000   1.0000   1.0000   1.0000
     1.0000   1.0000   1.0000   1.0000   1.0000   1.0000   1.0000   1.0000
     1.0000   1.0000   1.0000   1.0000   1.0000   1.0000   1.0000   1.0000
     1.0000   1.0000   1.0000   1.0000   1.0000   1.0000   1.0000   1.0000
     1.0000   1.0000   1.0000   1.0000   1.0000   1.0000   1.0000   1.0000
     1.0000   1.0000   1.0000   1.0000   1.0000   1.0000

          k = 0.0000 0.0000 0.0690 (  5788 PWs)   bands (ev):

   -64.6287 -64.6284 -38.0463 -38.0463 -38.0425 -38.0425 -38.0397 -38.0397
   -38.0362 -38.0362 -38.0138 -38.0138 -38.0102 -38.0102 -38.0070 -38.0070
   -38.0036 -38.0036 -37.9999 -37.9963 -37.9932 -37.9898 -28.8343 -28.8341
   -28.7319 -28.7318 -28.7316 -28.7316  -5.1766  -5.1597  -3.9676  -3.9374
     3.3159   3.4593   7.0965   7.1708   7.1708   7.1717   7.1717   7.5622
     8.2579   8.2580   8.2607   8.2608   9.1135   9.3665

     occupation numbers 
     1.0000   1.0000   1.0000   1.0000   1.0000   1.0000   1.0000   1.0000
     1.0000   1.0000   1.0000   1.0000   1.0000   1.0000   1.0000   1.0000
     1.0000   1.0000   1.0000   1.0000   1.0000   1.0000   1.0000   1.0000
     1.0000   1.0000   1.0000   1.0000   1.0000   1.0000   1.0000   1.0000
     1.0000   1.0000   1.0000   1.0000   1.0000   1.0000   1.0000   1.0000
     1.0000   1.0000   1.0000   1.0000   1.0000   1.0000

          k = 0.0000 0.0000 0.0828 (  5788 PWs)   bands (ev):

   -64.6287 -64.6284 -38.0463 -38.0463 -38.0425 -38.0425 -38.0397 -38.0397
   -38.0362 -38.0362 -38.0138 -38.0138 -38.0102 -38.0102 -38.0070 -38.0070
   -38.0036 -38.0036 -37.9999 -37.9963 -37.9932 -37.9898 -28.8343 -28.8341
   -28.7319 -28.7318 -28.7316 -28.7316  -5.1740  -5.1624  -3.9629  -3.9421
     3.3371   3.4359   7.1624   7.1709   7.1709   7.1715   7.1715   7.4808
     8.2583   8.2584   8.2603   8.2604   9.1630   9.3350

     occupation numbers 
     1.0000   1.0000   1.0000   1.0000   1.0000   1.0000   1.0000   1.0000
     1.0000   1.0000   1.0000   1.0000   1.0000   1.0000   1.0000   1.0000
     1.0000   1.0000   1.0000   1.0000   1.0000   1.0000   1.0000   1.0000
     1.0000   1.0000   1.0000   1.0000   1.0000   1.0000   1.0000   1.0000
     1.0000   1.0000   1.0000   1.0000   1.0000   1.0000   1.0000   1.0000
     1.0000   1.0000   1.0000   1.0000   1.0000   1.0000

          k = 0.0000 0.0000 0.0966 (  5776 PWs)   bands (ev):

   -64.6287 -64.6284 -38.0462 -38.0462 -38.0424 -38.0424 -38.0396 -38.0396
   -38.0361 -38.0361 -38.0137 -38.0137 -38.0101 -38.0101 -38.0067 -38.0067
   -38.0035 -38.0035 -38.0000 -37.9964 -37.9933 -37.9900 -28.8343 -28.8341
   -28.7318 -28.7318 -28.7316 -28.7316  -5.1712  -5.1653  -3.9577  -3.9472
     3.3606   3.4109   7.1711   7.1711   7.1714   7.1714   7.2358   7.3974
     8.2588   8.2589   8.2598   8.2599   9.2112   9.2982

     occupation numbers 
     1.0000   1.0000   1.0000   1.0000   1.0000   1.0000   1.0000   1.0000
     1.0000   1.0000   1.0000   1.0000   1.0000   1.0000   1.0000   1.0000
     1.0000   1.0000   1.0000   1.0000   1.0000   1.0000   1.0000   1.0000
     1.0000   1.0000   1.0000   1.0000   1.0000   1.0000   1.0000   1.0000
     1.0000   1.0000   1.0000   1.0000   1.0000   1.0000   1.0000   1.0000
     1.0000   1.0000   1.0000   1.0000   1.0000   1.0000

          k = 0.0000 0.0000-0.1104 (  5800 PWs)   bands (ev):

   -64.6287 -64.6284 -38.0463 -38.0463 -38.0425 -38.0425 -38.0398 -38.0398
   -38.0362 -38.0362 -38.0139 -38.0138 -38.0103 -38.0103 -38.0070 -38.0070
   -38.0037 -38.0037 -38.0001 -37.9965 -37.9933 -37.9900 -28.8343 -28.8341
   -28.7319 -28.7318 -28.7316 -28.7316  -5.1683  -5.1681  -3.9525  -3.9524
     3.3852   3.3858   7.1712   7.1712   7.1713   7.1713   7.3143   7.3156
     8.2593   8.2593   8.2594   8.2594   9.2560   9.2573

     occupation numbers 
     1.0000   1.0000   1.0000   1.0000   1.0000   1.0000   1.0000   1.0000
     1.0000   1.0000   1.0000   1.0000   1.0000   1.0000   1.0000   1.0000
     1.0000   1.0000   1.0000   1.0000   1.0000   1.0000   1.0000   1.0000
     1.0000   1.0000   1.0000   1.0000   1.0000   1.0000   1.0000   1.0000
     1.0000   1.0000   1.0000   1.0000   1.0000   1.0000   1.0000   1.0000
     1.0000   1.0000   1.0000   1.0000   1.0000   1.0000

          k = 0.0000 0.0722 0.0000 (  5769 PWs)   bands (ev):

   -64.6283 -64.6281 -38.0461 -38.0458 -38.0424 -38.0421 -38.0396 -38.0393
   -38.0361 -38.0358 -38.0139 -38.0138 -38.0103 -38.0103 -38.0071 -38.0070
   -38.0038 -38.0037 -37.9997 -37.9960 -37.9929 -37.9895 -28.8327 -28.8325
   -28.7396 -28.7394 -28.7337 -28.7334  -5.1269  -5.0967  -3.9510  -3.8975
     3.3361   3.5953   6.8472   6.9909   6.9932   7.2245   7.2266   7.5500
     8.1577   8.1634   8.2496   8.3908   8.9542   9.3953

     occupation numbers 
     1.0000   1.0000   1.0000   1.0000   1.0000   1.0000   1.0000   1.0000
     1.0000   1.0000   1.0000   1.0000   1.0000   1.0000   1.0000   1.0000
     1.0000   1.0000   1.0000   1.0000   1.0000   1.0000   1.0000   1.0000
     1.0000   1.0000   1.0000   1.0000   1.0000   1.0000   1.0000   1.0000
     1.0000   1.0000   1.0000   1.0000   1.0000   1.0000   1.0000   1.0000
     1.0000   1.0000   1.0000   1.0000   1.0000   1.0000

          k = 0.0000 0.0722 0.0138 (  5763 PWs)   bands (ev):

   -64.6283 -64.6281 -38.0461 -38.0458 -38.0424 -38.0421 -38.0396 -38.0393
   -38.0361 -38.0358 -38.0138 -38.0138 -38.0102 -38.0102 -38.0071 -38.0070
   -38.0037 -38.0037 -37.9995 -37.9959 -37.9928 -37.9894 -28.8327 -28.8325
   -28.7396 -28.7394 -28.7336 -28.7334  -5.1266  -5.0970  -3.9505  -3.8980
     3.3384   3.5925   6.8535   6.9909   6.9932   7.2245   7.2265   7.5427
     8.1578   8.1633   8.2500   8.3863   8.9624   9.3928

     occupation numbers 
     1.0000   1.0000   1.0000   1.0000   1.0000   1.0000   1.0000   1.0000
     1.0000   1.0000   1.0000   1.0000   1.0000   1.0000   1.0000   1.0000
     1.0000   1.0000   1.0000   1.0000   1.0000   1.0000   1.0000   1.0000
     1.0000   1.0000   1.0000   1.0000   1.0000   1.0000   1.0000   1.0000
     1.0000   1.0000   1.0000   1.0000   1.0000   1.0000   1.0000   1.0000
     1.0000   1.0000   1.0000   1.0000   1.0000   1.0000

          k = 0.0000 0.0722 0.0276 (  5761 PWs)   bands (ev):

   -64.6283 -64.6281 -38.0461 -38.0458 -38.0423 -38.0421 -38.0395 -38.0393
   -38.0360 -38.0358 -38.0138 -38.0138 -38.0103 -38.0102 -38.0070 -38.0070
   -38.0037 -38.0037 -37.9995 -37.9959 -37.9928 -37.9894 -28.8327 -28.8325
   -28.7396 -28.7394 -28.7336 -28.7334  -5.1258  -5.0979  -3.9489  -3.8995
     3.3450   3.5843   6.8723   6.9910   6.9931   7.2246   7.2265   7.5211
     8.1579   8.1631   8.2511   8.3739   8.9856   9.3852

     occupation numbers 
     1.0000   1.0000   1.0000   1.0000   1.0000   1.0000   1.0000   1.0000
     1.0000   1.0000   1.0000   1.0000   1.0000   1.0000   1.0000   1.0000
     1.0000   1.0000   1.0000   1.0000   1.0000   1.0000   1.0000   1.0000
     1.0000   1.0000   1.0000   1.0000   1.0000   1.0000   1.0000   1.0000
     1.0000   1.0000   1.0000   1.0000   1.0000   1.0000   1.0000   1.0000
     1.0000   1.0000   1.0000   1.0000   1.0000   1.0000

          k = 0.0000 0.0722 0.0414 (  5766 PWs)   bands (ev):

   -64.6283 -64.6281 -38.0461 -38.0459 -38.0423 -38.0421 -38.0395 -38.0393
   -38.0360 -38.0358 -38.0139 -38.0138 -38.0103 -38.0102 -38.0071 -38.0071
   -38.0038 -38.0037 -37.9996 -37.9960 -37.9929 -37.9895 -28.8327 -28.8325
   -28.7396 -28.7394 -28.7336 -28.7334  -5.1244  -5.0993  -3.9464  -3.9020
     3.3560   3.5711   6.9028   6.9911   6.9930   7.2247   7.2264   7.4863
     8.1582   8.1629   8.2531   8.3568   9.0199   9.3725

     occupation numbers 
     1.0000   1.0000   1.0000   1.0000   1.0000   1.0000   1.0000   1.0000
     1.0000   1.0000   1.0000   1.0000   1.0000   1.0000   1.0000   1.0000
     1.0000   1.0000   1.0000   1.0000   1.0000   1.0000   1.0000   1.0000
     1.0000   1.0000   1.0000   1.0000   1.0000   1.0000   1.0000   1.0000
     1.0000   1.0000   1.0000   1.0000   1.0000   1.0000   1.0000   1.0000
     1.0000   1.0000   1.0000   1.0000   1.0000   1.0000

          k = 0.0000 0.0722 0.0552 (  5769 PWs)   bands (ev):

   -64.6283 -64.6281 -38.0461 -38.0459 -38.0423 -38.0421 -38.0396 -38.0393
   -38.0360 -38.0358 -38.0139 -38.0138 -38.0103 -38.0103 -38.0071 -38.0071
   -38.0038 -38.0038 -37.9996 -37.9960 -37.9929 -37.9895 -28.8327 -28.8325
   -28.7396 -28.7394 -28.7336 -28.7334  -5.1226  -5.1012  -3.9430  -3.9053
     3.3708   3.5536   6.9440   6.9913   6.9928   7.2248   7.2262   7.4398
     8.1586   8.1625   8.2559   8.3382   9.0612   9.3547

     occupation numbers 
     1.0000   1.0000   1.0000   1.0000   1.0000   1.0000   1.0000   1.0000
     1.0000   1.0000   1.0000   1.0000   1.0000   1.0000   1.0000   1.0000
     1.0000   1.0000   1.0000   1.0000   1.0000   1.0000   1.0000   1.0000
     1.0000   1.0000   1.0000   1.0000   1.0000   1.0000   1.0000   1.0000
     1.0000   1.0000   1.0000   1.0000   1.0000   1.0000   1.0000   1.0000
     1.0000   1.0000   1.0000   1.0000   1.0000   1.0000

          k = 0.0000 0.0722 0.0690 (  5769 PWs)   bands (ev):

   -64.6283 -64.6281 -38.0461 -38.0459 -38.0423 -38.0421 -38.0395 -38.0393
   -38.0360 -38.0358 -38.0139 -38.0138 -38.0103 -38.0103 -38.0071 -38.0070
   -38.0038 -38.0037 -37.9997 -37.9960 -37.9929 -37.9896 -28.8327 -28.8325
   -28.7396 -28.7394 -28.7336 -28.7334  -5.1204  -5.1036  -3.9389  -3.9093
     3.3891   3.5325   6.9897   6.9926   6.9965   7.2249   7.2261   7.3838
     8.1590   8.1621   8.2599   8.3205   9.1058   9.3320

     occupation numbers 
     1.0000   1.0000   1.0000   1.0000   1.0000   1.0000   1.0000   1.0000
     1.0000   1.0000   1.0000   1.0000   1.0000   1.0000   1.0000   1.0000
     1.0000   1.0000   1.0000   1.0000   1.0000   1.0000   1.0000   1.0000
     1.0000   1.0000   1.0000   1.0000   1.0000   1.0000   1.0000   1.0000
     1.0000   1.0000   1.0000   1.0000   1.0000   1.0000   1.0000   1.0000
     1.0000   1.0000   1.0000   1.0000   1.0000   1.0000

          k = 0.0000 0.0722 0.0828 (  5791 PWs)   bands (ev):

   -64.6283 -64.6281 -38.0462 -38.0460 -38.0425 -38.0422 -38.0397 -38.0394
   -38.0362 -38.0359 -38.0140 -38.0139 -38.0104 -38.0104 -38.0073 -38.0071
   -38.0040 -38.0038 -37.9999 -37.9963 -37.9931 -37.9898 -28.8328 -28.8326
   -28.7397 -28.7394 -28.7337 -28.7335  -5.1178  -5.1062  -3.9343  -3.9138
     3.4103   3.5090   6.9914   6.9924   7.0534   7.2251   7.2259   7.3208
     8.1595   8.1616   8.2651   8.3047   9.1508   9.3042

     occupation numbers 
     1.0000   1.0000   1.0000   1.0000   1.0000   1.0000   1.0000   1.0000
     1.0000   1.0000   1.0000   1.0000   1.0000   1.0000   1.0000   1.0000
     1.0000   1.0000   1.0000   1.0000   1.0000   1.0000   1.0000   1.0000
     1.0000   1.0000   1.0000   1.0000   1.0000   1.0000   1.0000   1.0000
     1.0000   1.0000   1.0000   1.0000   1.0000   1.0000   1.0000   1.0000
     1.0000   1.0000   1.0000   1.0000   1.0000   1.0000

          k = 0.0000 0.0722 0.0966 (  5788 PWs)   bands (ev):

   -64.6283 -64.6281 -38.0462 -38.0460 -38.0425 -38.0422 -38.0397 -38.0394
   -38.0362 -38.0359 -38.0141 -38.0138 -38.0105 -38.0103 -38.0073 -38.0070
   -38.0040 -38.0037 -37.9999 -37.9963 -37.9931 -37.9898 -28.8327 -28.8326
   -28.7397 -28.7395 -28.7336 -28.7334  -5.1150  -5.1091  -3.9292  -3.9188
     3.4338   3.4841   6.9917   6.9922   7.1174   7.2253   7.2257   7.2536
     8.1600   8.1611   8.2719   8.2914   9.1943   9.2718

     occupation numbers 
     1.0000   1.0000   1.0000   1.0000   1.0000   1.0000   1.0000   1.0000
     1.0000   1.0000   1.0000   1.0000   1.0000   1.0000   1.0000   1.0000
     1.0000   1.0000   1.0000   1.0000   1.0000   1.0000   1.0000   1.0000
     1.0000   1.0000   1.0000   1.0000   1.0000   1.0000   1.0000   1.0000
     1.0000   1.0000   1.0000   1.0000   1.0000   1.0000   1.0000   1.0000
     1.0000   1.0000   1.0000   1.0000   1.0000   1.0000

          k = 0.0000 0.0722-0.1104 (  5794 PWs)   bands (ev):

   -64.6284 -64.6281 -38.0462 -38.0460 -38.0425 -38.0422 -38.0397 -38.0395
   -38.0362 -38.0360 -38.0141 -38.0139 -38.0106 -38.0103 -38.0073 -38.0070
   -38.0040 -38.0037 -37.9999 -37.9964 -37.9931 -37.9898 -28.8328 -28.8326
   -28.7397 -28.7395 -28.7337 -28.7334  -5.1122  -5.1120  -3.9241  -3.9240
     3.4583   3.4589   6.9919   6.9920   7.1845   7.1854   7.2255   7.2255
[...]
     1.0000   1.0000   1.0000   1.0000   1.0000   1.0000   1.0000   1.0000
     1.0000   1.0000   1.0000   1.0000   1.0000   1.0000

          k = 0.2500 0.5774 0.0966 (  5846 PWs)   bands (ev):

   -64.6143 -64.6141 -38.0484 -38.0471 -38.0447 -38.0433 -38.0418 -38.0405
   -38.0383 -38.0370 -38.0177 -38.0171 -38.0140 -38.0135 -38.0109 -38.0105
   -38.0076 -38.0071 -38.0002 -37.9967 -37.9934 -37.9901 -28.9003 -28.9000
   -28.8411 -28.8409 -28.7851 -28.7849  -3.0816  -3.0804  -2.9213  -2.9202
     4.0200   4.0247   4.2741   4.2784   5.4434   5.4518   5.9341   5.9379
     6.2285   6.2410   7.2499   7.2596   9.3231   9.3333

     occupation numbers 
     1.0000   1.0000   1.0000   1.0000   1.0000   1.0000   1.0000   1.0000
     1.0000   1.0000   1.0000   1.0000   1.0000   1.0000   1.0000   1.0000
     1.0000   1.0000   1.0000   1.0000   1.0000   1.0000   1.0000   1.0000
     1.0000   1.0000   1.0000   1.0000   1.0000   1.0000   1.0000   1.0000
     1.0000   1.0000   1.0000   1.0000   1.0000   1.0000   1.0000   1.0000
     1.0000   1.0000   1.0000   1.0000   1.0000   1.0000

          k = 0.2500 0.5774-0.1104 (  5842 PWs)   bands (ev):

   -64.6143 -64.6141 -38.0485 -38.0471 -38.0447 -38.0433 -38.0418 -38.0405
   -38.0383 -38.0370 -38.0176 -38.0170 -38.0140 -38.0134 -38.0109 -38.0104
   -38.0076 -38.0070 -38.0003 -37.9968 -37.9934 -37.9901 -28.9003 -28.9001
   -28.8411 -28.8409 -28.7851 -28.7849  -3.0811  -3.0809  -2.9208  -2.9206
     4.0222   4.0225   4.2762   4.2763   5.4473   5.4478   5.9355   5.9358
     6.2352   6.2354   7.2545   7.2546   9.3281   9.3282

     occupation numbers 
     1.0000   1.0000   1.0000   1.0000   1.0000   1.0000   1.0000   1.0000
     1.0000   1.0000   1.0000   1.0000   1.0000   1.0000   1.0000   1.0000
     1.0000   1.0000   1.0000   1.0000   1.0000   1.0000   1.0000   1.0000
     1.0000   1.0000   1.0000   1.0000   1.0000   1.0000   1.0000   1.0000
     1.0000   1.0000   1.0000   1.0000   1.0000   1.0000   1.0000   1.0000
     1.0000   1.0000   1.0000   1.0000   1.0000   1.0000

          k = 0.3125 0.5413 0.0000 (  5863 PWs)   bands (ev):

   -64.6142 -64.6139 -38.0480 -38.0473 -38.0443 -38.0435 -38.0413 -38.0407
   -38.0379 -38.0372 -38.0178 -38.0173 -38.0143 -38.0136 -38.0110 -38.0108
   -38.0077 -38.0073 -38.0004 -37.9968 -37.9935 -37.9902 -28.8896 -28.8894
   -28.8555 -28.8553 -28.7846 -28.7844  -3.0490  -3.0454  -2.9035  -2.8998
     4.2196   4.2279   4.2309   4.2463   5.2786   5.3046   5.7559   5.7919
     6.2042   6.2517   7.1961   7.2230   9.4067   9.4541

     occupation numbers 
     1.0000   1.0000   1.0000   1.0000   1.0000   1.0000   1.0000   1.0000
     1.0000   1.0000   1.0000   1.0000   1.0000   1.0000   1.0000   1.0000
     1.0000   1.0000   1.0000   1.0000   1.0000   1.0000   1.0000   1.0000
     1.0000   1.0000   1.0000   1.0000   1.0000   1.0000   1.0000   1.0000
     1.0000   1.0000   1.0000   1.0000   1.0000   1.0000   1.0000   1.0000
     1.0000   1.0000   1.0000   1.0000   1.0000   1.0000

          k = 0.3125 0.5413 0.0138 (  5857 PWs)   bands (ev):

   -64.6142 -64.6139 -38.0480 -38.0472 -38.0443 -38.0434 -38.0414 -38.0407
   -38.0379 -38.0371 -38.0178 -38.0173 -38.0142 -38.0136 -38.0110 -38.0107
   -38.0076 -38.0073 -38.0004 -37.9969 -37.9935 -37.9902 -28.8896 -28.8894
   -28.8554 -28.8552 -28.7846 -28.7844  -3.0489  -3.0454  -2.9034  -2.8998
     4.2198   4.2279   4.2310   4.2461   5.2789   5.3044   5.7559   5.7912
     6.2053   6.2518   7.1961   7.2225   9.4072   9.4536

     occupation numbers 
     1.0000   1.0000   1.0000   1.0000   1.0000   1.0000   1.0000   1.0000
     1.0000   1.0000   1.0000   1.0000   1.0000   1.0000   1.0000   1.0000
     1.0000   1.0000   1.0000   1.0000   1.0000   1.0000   1.0000   1.0000
     1.0000   1.0000   1.0000   1.0000   1.0000   1.0000   1.0000   1.0000
     1.0000   1.0000   1.0000   1.0000   1.0000   1.0000   1.0000   1.0000
     1.0000   1.0000   1.0000   1.0000   1.0000   1.0000

          k = 0.3125 0.5413 0.0276 (  5862 PWs)   bands (ev):

   -64.6142 -64.6139 -38.0480 -38.0473 -38.0443 -38.0435 -38.0414 -38.0407
   -38.0379 -38.0372 -38.0178 -38.0173 -38.0142 -38.0136 -38.0110 -38.0107
   -38.0077 -38.0073 -38.0004 -37.9969 -37.9935 -37.9902 -28.8896 -28.8894
   -28.8555 -28.8553 -28.7846 -28.7844  -3.0488  -3.0455  -2.9033  -2.8999
     4.2204   4.2280   4.2311   4.2454   5.2797   5.3036   5.7559   5.7889
     6.2084   6.2521   7.1961   7.2210   9.4085   9.4522

     occupation numbers 
     1.0000   1.0000   1.0000   1.0000   1.0000   1.0000   1.0000   1.0000
     1.0000   1.0000   1.0000   1.0000   1.0000   1.0000   1.0000   1.0000
     1.0000   1.0000   1.0000   1.0000   1.0000   1.0000   1.0000   1.0000
     1.0000   1.0000   1.0000   1.0000   1.0000   1.0000   1.0000   1.0000
     1.0000   1.0000   1.0000   1.0000   1.0000   1.0000   1.0000   1.0000
     1.0000   1.0000   1.0000   1.0000   1.0000   1.0000

          k = 0.3125 0.5413 0.0414 (  5854 PWs)   bands (ev):

   -64.6142 -64.6139 -38.0480 -38.0472 -38.0443 -38.0435 -38.0414 -38.0407
   -38.0379 -38.0372 -38.0177 -38.0172 -38.0141 -38.0136 -38.0110 -38.0106
   -38.0076 -38.0072 -38.0003 -37.9968 -37.9934 -37.9902 -28.8896 -28.8894
   -28.8555 -28.8553 -28.7845 -28.7844  -3.0487  -3.0457  -2.9031  -2.9001
     4.2212   4.2280   4.2313   4.2444   5.2809   5.3024   5.7560   5.7855
     6.2132   6.2523   7.1963   7.2187   9.4106   9.4499

     occupation numbers 
     1.0000   1.0000   1.0000   1.0000   1.0000   1.0000   1.0000   1.0000
     1.0000   1.0000   1.0000   1.0000   1.0000   1.0000   1.0000   1.0000
     1.0000   1.0000   1.0000   1.0000   1.0000   1.0000   1.0000   1.0000
     1.0000   1.0000   1.0000   1.0000   1.0000   1.0000   1.0000   1.0000
     1.0000   1.0000   1.0000   1.0000   1.0000   1.0000   1.0000   1.0000
     1.0000   1.0000   1.0000   1.0000   1.0000   1.0000

          k = 0.3125 0.5413 0.0552 (  5847 PWs)   bands (ev):

   -64.6142 -64.6139 -38.0480 -38.0472 -38.0443 -38.0435 -38.0413 -38.0407
   -38.0379 -38.0372 -38.0177 -38.0172 -38.0141 -38.0135 -38.0109 -38.0106
   -38.0076 -38.0072 -38.0003 -37.9968 -37.9933 -37.9901 -28.8896 -28.8894
   -28.8554 -28.8552 -28.7845 -28.7843  -3.0484  -3.0459  -2.9029  -2.9003
     4.2223   4.2280   4.2317   4.2430   5.2825   5.3008   5.7564   5.7813
     6.2192   6.2523   7.1966   7.2158   9.4134   9.4468

     occupation numbers 
     1.0000   1.0000   1.0000   1.0000   1.0000   1.0000   1.0000   1.0000
     1.0000   1.0000   1.0000   1.0000   1.0000   1.0000   1.0000   1.0000
     1.0000   1.0000   1.0000   1.0000   1.0000   1.0000   1.0000   1.0000
     1.0000   1.0000   1.0000   1.0000   1.0000   1.0000   1.0000   1.0000
     1.0000   1.0000   1.0000   1.0000   1.0000   1.0000   1.0000   1.0000
     1.0000   1.0000   1.0000   1.0000   1.0000   1.0000

          k = 0.3125 0.5413 0.0690 (  5831 PWs)   bands (ev):

   -64.6142 -64.6139 -38.0479 -38.0472 -38.0442 -38.0434 -38.0413 -38.0406
   -38.0378 -38.0371 -38.0175 -38.0170 -38.0139 -38.0134 -38.0108 -38.0104
   -38.0074 -38.0070 -38.0002 -37.9968 -37.9932 -37.9900 -28.8896 -28.8894
   -28.8554 -28.8552 -28.7845 -28.7843  -3.0482  -3.0462  -2.9026  -2.9006
     4.2236   4.2280   4.2322   4.2413   5.2845   5.2989   5.7572   5.7766
     6.2257   6.2516   7.1974   7.2125   9.4169   9.4431

     occupation numbers 
     1.0000   1.0000   1.0000   1.0000   1.0000   1.0000   1.0000   1.0000
     1.0000   1.0000   1.0000   1.0000   1.0000   1.0000   1.0000   1.0000
     1.0000   1.0000   1.0000   1.0000   1.0000   1.0000   1.0000   1.0000
     1.0000   1.0000   1.0000   1.0000   1.0000   1.0000   1.0000   1.0000
     1.0000   1.0000   1.0000   1.0000   1.0000   1.0000   1.0000   1.0000
     1.0000   1.0000   1.0000   1.0000   1.0000   1.0000

          k = 0.3125 0.5413 0.0828 (  5839 PWs)   bands (ev):

   -64.6142 -64.6139 -38.0480 -38.0472 -38.0442 -38.0435 -38.0413 -38.0407
   -38.0379 -38.0372 -38.0176 -38.0171 -38.0140 -38.0134 -38.0109 -38.0104
   -38.0075 -38.0070 -38.0003 -37.9968 -37.9933 -37.9901 -28.8896 -28.8894
   -28.8554 -28.8552 -28.7845 -28.7843  -3.0479  -3.0465  -2.9023  -2.9009
     4.2248   4.2279   4.2330   4.2395   5.2868   5.2967   5.7587   5.7720
     6.2322   6.2500   7.1986   7.2091   9.4209   9.4390

     occupation numbers 
     1.0000   1.0000   1.0000   1.0000   1.0000   1.0000   1.0000   1.0000
     1.0000   1.0000   1.0000   1.0000   1.0000   1.0000   1.0000   1.0000
     1.0000   1.0000   1.0000   1.0000   1.0000   1.0000   1.0000   1.0000
     1.0000   1.0000   1.0000   1.0000   1.0000   1.0000   1.0000   1.0000
     1.0000   1.0000   1.0000   1.0000   1.0000   1.0000   1.0000   1.0000
     1.0000   1.0000   1.0000   1.0000   1.0000   1.0000

          k = 0.3125 0.5413 0.0966 (  5830 PWs)   bands (ev):

   -64.6142 -64.6139 -38.0479 -38.0472 -38.0442 -38.0434 -38.0413 -38.0407
   -38.0378 -38.0372 -38.0175 -38.0170 -38.0139 -38.0134 -38.0108 -38.0104
   -38.0074 -38.0070 -38.0002 -37.9967 -37.9933 -37.9900 -28.8896 -28.8894
   -28.8554 -28.8552 -28.7845 -28.7843  -3.0475  -3.0468  -2.9020  -2.9012
     4.2257   4.2278   4.2341   4.2377   5.2892   5.2943   5.7609   5.7677
     6.2382   6.2473   7.2004   7.2058   9.4252   9.4345

     occupation numbers 
     1.0000   1.0000   1.0000   1.0000   1.0000   1.0000   1.0000   1.0000
     1.0000   1.0000   1.0000   1.0000   1.0000   1.0000   1.0000   1.0000
     1.0000   1.0000   1.0000   1.0000   1.0000   1.0000   1.0000   1.0000
     1.0000   1.0000   1.0000   1.0000   1.0000   1.0000   1.0000   1.0000
     1.0000   1.0000   1.0000   1.0000   1.0000   1.0000   1.0000   1.0000
     1.0000   1.0000   1.0000   1.0000   1.0000   1.0000

          k = 0.3125 0.5413-0.1104 (  5822 PWs)   bands (ev):

   -64.6142 -64.6139 -38.0479 -38.0472 -38.0442 -38.0434 -38.0413 -38.0406
   -38.0378 -38.0371 -38.0175 -38.0169 -38.0139 -38.0133 -38.0108 -38.0103
   -38.0074 -38.0069 -38.0001 -37.9966 -37.9932 -37.9900 -28.8896 -28.8894
   -28.8554 -28.8552 -28.7844 -28.7842  -3.0473  -3.0471  -2.9017  -2.9015
     4.2260   4.2277   4.2350   4.2365   5.2917   5.2918   5.7637   5.7641
     6.2432   6.2435   7.2028   7.2029   9.4298   9.4299

     occupation numbers 
     1.0000   1.0000   1.0000   1.0000   1.0000   1.0000   1.0000   1.0000
     1.0000   1.0000   1.0000   1.0000   1.0000   1.0000   1.0000   1.0000
     1.0000   1.0000   1.0000   1.0000   1.0000   1.0000   1.0000   1.0000
     1.0000   1.0000   1.0000   1.0000   1.0000   1.0000   1.0000   1.0000
     1.0000   1.0000   1.0000   1.0000   1.0000   1.0000   1.0000   1.0000
     1.0000   1.0000   1.0000   1.0000   1.0000   1.0000

     highest occupied level (ev):     9.4563

!    total energy              =   -3127.98819378 Ry

     total all-electron energy =    -84012.712758 Ry
     estimated scf accuracy    <          2.1E-10 Ry

     The total energy is the sum of the following terms:
     one-electron contribution =   -1170.13106789 Ry
     hartree contribution      =     606.86480511 Ry
     xc contribution           =    -194.05126078 Ry
     ewald contribution        =    -595.85402454 Ry
     one-center paw contrib.   =   -1774.81664568 Ry
      -> PAW hartree energy AE =     182.69518729 Ry
      -> PAW hartree energy PS =    -181.71132407 Ry
      -> PAW xc energy AE      =   -1289.22160877 Ry
      -> PAW xc energy PS      =      77.14058576 Ry
      -> total E_H with PAW    =     607.84866833 Ry
      -> total E_XC with PAW   =   -1406.13228378 Ry

     convergence has been achieved in   6 iterations

     negative rho (up, down):  4.645E-04 0.000E+00

     Forces acting on atoms (cartesian axes, Ry/au):

     atom    1 type  1   force =    -0.00000000   -0.00000000   -0.00000000
     atom    2 type  1   force =     0.00000000    0.00000000    0.00000000
     atom    3 type  2   force =     0.00000000    0.00000000    0.00005714
     atom    4 type  2   force =    -0.00000000    0.00000000    0.00005714
     atom    5 type  2   force =     0.00000000   -0.00000000   -0.00005714
     atom    6 type  2   force =     0.00000000    0.00000000   -0.00005714
     The non-local contrib.  to forces
     atom    1 type  1   force =     0.00000000    0.00000000    0.00000000
     atom    2 type  1   force =     0.00000000   -0.00000000   -0.00000000
     atom    3 type  2   force =     0.00000000   -0.00000000   -0.73296824
     atom    4 type  2   force =    -0.00000000    0.00000000   -0.73296824
     atom    5 type  2   force =     0.00000000    0.00000000    0.73296824
     atom    6 type  2   force =    -0.00000000    0.00000000    0.73296824
     The ionic contribution  to forces
     atom    1 type  1   force =     0.00003819   -0.00002205   -0.00064590
     atom    2 type  1   force =    -0.00003819    0.00002205    0.00064590
     atom    3 type  2   force =    -0.00001921    0.00001109   50.84609503
     atom    4 type  2   force =     0.00001921   -0.00001109   50.84807954
     atom    5 type  2   force =    -0.00001921    0.00001109  -50.84807954
     atom    6 type  2   force =     0.00001921   -0.00001109  -50.84609503
     The local contribution  to forces
     atom    1 type  1   force =     0.00008958   -0.00002087    0.00130225
     atom    2 type  1   force =    -0.00021532    0.00015517    0.00299390
     atom    3 type  2   force =    -0.00154222    0.00094963  -50.11396398
     atom    4 type  2   force =     0.00053736   -0.00025102  -50.09461672
     atom    5 type  2   force =    -0.00157494    0.00096852   50.11887136
     atom    6 type  2   force =     0.00057008   -0.00026991   50.13827846
     The core correction contribution to forces
     atom    1 type  1   force =     0.00000152    0.00000232    0.00000376
     atom    2 type  1   force =     0.00000098    0.00000264    0.00000664
     atom    3 type  2   force =    -0.00000261    0.00000178    0.00241316
     atom    4 type  2   force =     0.00000101   -0.00000031    0.00244626
     atom    5 type  2   force =    -0.00000265    0.00000180   -0.00240480
     atom    6 type  2   force =     0.00000105   -0.00000034   -0.00237202
     The Hubbard contrib.    to forces
     atom    1 type  1   force =     0.00000000    0.00000000    0.00000000
     atom    2 type  1   force =     0.00000000    0.00000000    0.00000000
     atom    3 type  2   force =     0.00000000    0.00000000    0.00000000
     atom    4 type  2   force =     0.00000000    0.00000000    0.00000000
     atom    5 type  2   force =     0.00000000    0.00000000    0.00000000
     atom    6 type  2   force =     0.00000000    0.00000000    0.00000000
     The SCF correction term to forces
     atom    1 type  1   force =    -0.00000000    0.00000000    0.00000000
     atom    2 type  1   force =    -0.00000000    0.00000000   -0.00000000
     atom    3 type  2   force =     0.00000000   -0.00000000   -0.00003833
     atom    4 type  2   force =    -0.00000000    0.00000000   -0.00003833
     atom    5 type  2   force =    -0.00000000   -0.00000000    0.00003833
     atom    6 type  2   force =     0.00000000   -0.00000000    0.00003833

     Total force =     0.000114     Total SCF correction =     0.000077
     SCF correction compared to forces is large: reduce conv_thr to get better values
     Energy error            =      9.5E-06
     Gradient error          =      5.7E-05

     bfgs converged in   4 scf cycles and   3 bfgs steps
     (criteria: energy <  1.0E-04 Ry, force <  1.0E-03 Ry/Bohr)

     End of BFGS Geometry Optimization

     Final energy   =   -3127.9881937804 Ry

     File ./tmp/WSe2.bfgs deleted, as requested
Begin final coordinates

ATOMIC_POSITIONS (crystal)
W             0.3333330000        0.6666670000        0.2499990000
W             0.6666670000        0.3333330000        0.7499980000
Se            0.6666670000        0.3333330000        0.3610870637
Se            0.3333330000        0.6666670000        0.8610850637
Se            0.6666670000        0.3333330000        0.1389119363
Se            0.3333330000        0.6666670000        0.6389099363
End final coordinates



     Writing output data file ./tmp/WSe2.save/

     init_run     :      4.00s CPU      7.25s WALL (       1 calls)
     electrons    :   4519.88s CPU   4596.65s WALL (       4 calls)
     update_pot   :      5.23s CPU      5.28s WALL (       3 calls)
     forces       :    122.95s CPU    123.87s WALL (       4 calls)

     Called by init_run:
     wfcinit      :      1.51s CPU      4.51s WALL (       1 calls)
     potinit      :      0.56s CPU      0.63s WALL (       1 calls)
     hinit0       :      1.32s CPU      1.38s WALL (       1 calls)

     Called by electrons:
     c_bands      :   4144.14s CPU   4205.69s WALL (      25 calls)
     sum_band     :    356.02s CPU    368.54s WALL (      25 calls)
     v_of_rho     :      2.69s CPU      3.02s WALL (      25 calls)
     v_h          :      0.21s CPU      0.22s WALL (      25 calls)
     v_xc         :      2.83s CPU      3.24s WALL (      29 calls)
     newd         :      9.75s CPU     12.23s WALL (      25 calls)
     PAW_pot      :     11.35s CPU     11.38s WALL (      28 calls)
     mix_rho      :      0.32s CPU      0.37s WALL (      25 calls)

     Called by c_bands:
     init_us_2    :     22.13s CPU     22.30s WALL (   15390 calls)
     cegterg      :   4051.74s CPU   4112.83s WALL (    6750 calls)

     Called by sum_band:
     sum_band:wei :      0.00s CPU      0.00s WALL (      25 calls)
     sum_band:loo :    341.53s CPU    351.15s WALL (      25 calls)
     sum_band:buf :      3.22s CPU      3.26s WALL (    6750 calls)
     sum_band:ini :      9.43s CPU      9.46s WALL (    6750 calls)
     sum_band:cal :    188.14s CPU    190.28s WALL (    7560 calls)
     sum_band:bec :      1.17s CPU      1.18s WALL (    7560 calls)
     addusdens    :     13.94s CPU     16.75s WALL (      25 calls)
     addusd:skk   :      0.03s CPU      0.04s WALL (      50 calls)
     addusd:dgemm :      6.15s CPU      8.77s WALL (      50 calls)
     addusd:qvan2 :      7.19s CPU      7.19s WALL (      50 calls)

     Called by *egterg:
     cdiaghg      :    157.11s CPU    158.43s WALL (   35331 calls)
     cegterg:over :    567.57s CPU    569.87s WALL (   30741 calls)
     cegterg:upda :    258.72s CPU    260.64s WALL (   30741 calls)
     cegterg:last :    611.94s CPU    614.81s WALL (   16906 calls)
     cdiaghg:chol :     10.39s CPU     10.46s WALL (   35331 calls)
     cdiaghg:inve :      1.23s CPU      1.24s WALL (   35331 calls)
     cdiaghg:para :     44.60s CPU     44.99s WALL (   70662 calls)
     h_psi        :   1852.71s CPU   1904.25s WALL (   37491 calls)
     s_psi        :    421.40s CPU    422.22s WALL (   37491 calls)
     g_psi        :     16.30s CPU     16.36s WALL (   30741 calls)

     Called by h_psi:
     h_psi:calbec :    521.57s CPU    530.74s WALL (   37491 calls)
     vloc_psi     :    872.76s CPU    913.91s WALL (   37491 calls)
     add_vuspsi   :    450.01s CPU    451.39s WALL (   37491 calls)

     General routines
     calbec       :    818.15s CPU    829.86s WALL (   49371 calls)
     fft          :      2.82s CPU      3.04s WALL (     368 calls)
     ffts         :      0.06s CPU      0.06s WALL (      50 calls)
     fftw         :    902.02s CPU    944.71s WALL ( 2176522 calls)
     interpolate  :      0.25s CPU      0.26s WALL (      25 calls)

     Parallel routines
     fft_scatt_xy :    126.55s CPU    132.64s WALL ( 2176940 calls)
     fft_scatt_yz :    301.18s CPU    315.53s WALL ( 2176940 calls)

     PAW routines
     PAW_pot      :     11.35s CPU     11.38s WALL (      28 calls)
     PAW_symme    :      0.02s CPU      0.02s WALL (      52 calls)

     PWSCF        :      1h17m CPU      1h19m WALL


   This run was terminated on:  20:38:57   6Sep2024            

=------------------------------------------------------------------------------=
   JOB DONE.
=------------------------------------------------------------------------------=
