
     Program PWSCF v.6.7MaX starts on  7Sep2024 at 10:56:54 

     This program is part of the open-source Quantum ESPRESSO suite
     for quantum simulation of materials; please cite
         "P. Giannozzi et al., J. Phys.:Condens. Matter 21 395502 (2009);
         "P. Giannozzi et al., J. Phys.:Condens. Matter 29 465901 (2017);
          URL http://www.quantum-espresso.org", 
     in publications or presentations arising from this work. More details at
     http://www.quantum-espresso.org/quote

     Parallel version (MPI), running on     4 processors

     MPI processes distributed on     1 nodes
     R & G space division:  proc/nbgrp/npool/nimage =       4
     Reading input from WSe2_relax2.inp

     Current dimensions of program PWSCF are:
     Max number of different atomic species (ntypx) = 10
     Max number of k-points (npk) =  40000
     Max angular momentum in pseudopotentials (lmaxx) =  3
     file W.pbe-spn-kjpaw_psl.1.0.0.UPF: wavefunction(s)  6S 5P 5D renormalized
     file Se.pbe-dn-kjpaw_psl.1.0.0.UPF: wavefunction(s)  4S 4P 3D renormalized

     IMPORTANT: XC functional enforced from input :
     Exchange-correlation= PBESOL
                           (   1   4  10   8   0   0   0)
     Any further DFT definition will be discarded
     Please, verify this is what you really want


     --------------------------------------------
     Parameters for DFT-D3 Dispersion Correction:
     --------------------------------------------
       Reference C6 values for interpolation: 

         atom   Coordination number   C6
         Se         0.000           427.35
         Se         0.990           427.57
         Se         1.981           421.05
         W          0.000          1628.72
         W          1.929          1086.81
         W         10.915           796.19

       Values used:

         atom   Coordination number  R0_AB[au]  C6      C8
         W          8.618            3.766    796.19 128250.55
         W          8.618            3.766    796.19 128250.55
         Se         3.912            3.332    421.05  29958.36
         Se         3.912            3.332    421.05  29958.36
         Se         3.912            3.332    421.05  29958.36
         Se         3.912            3.332    421.05  29958.36

         Molecular C6 ( Ry / a.u.^6 ) =     19173.74


     Subspace diagonalization in iterative solution of the eigenvalue problem:
     one sub-group per band group will be used
     scalapack distributed-memory algorithm (size of sub-group:  2*  2 procs)


     Parallelization info
     --------------------
     sticks:   dense  smooth     PW     G-vecs:    dense   smooth      PW
     Min         321     148     42                42597    13420    2115
     Max         322     149     43                42620    13435    2122
     Sum        1285     595    169               170417    53709    8473



     bravais-lattice index     =            4
     lattice parameter (alat)  =       6.2873  a.u.
     unit-cell volume          =     974.8449 (a.u.)^3
     number of atoms/cell      =            6
     number of atomic types    =            2
     number of electrons       =        92.00
     number of Kohn-Sham states=           46
     kinetic-energy cutoff     =      55.0000  Ry
     charge density cutoff     =     475.0000  Ry
     scf convergence threshold =      1.0E-09
     mixing beta               =       0.5000
     number of iterations used =            8  plain     mixing
     energy convergence thresh.=      1.0E-04
     force convergence thresh. =      1.0E-04
     Exchange-correlation= PBESOL
                           (   1   4  10   8   0   0   0)
     nstep                     =          500


     celldm(1)=   6.287251  celldm(2)=   0.000000  celldm(3)=   4.529210
     celldm(4)=   0.000000  celldm(5)=   0.000000  celldm(6)=   0.000000

     crystal axes: (cart. coord. in units of alat)
               a(1) = (   1.000000   0.000000   0.000000 )  
               a(2) = (  -0.500000   0.866025   0.000000 )  
               a(3) = (   0.000000   0.000000   4.529210 )  

     reciprocal axes: (cart. coord. in units 2 pi/alat)
               b(1) = (  1.000000  0.577350 -0.000000 )  
               b(2) = (  0.000000  1.154701  0.000000 )  
               b(3) = (  0.000000 -0.000000  0.220789 )  


     PseudoPot. # 1 for W  read from file:
     /home/alessandro_rotondi/q-e/pseudo/W.pbe-spn-kjpaw_psl.1.0.0.UPF
     MD5 check sum: 03c3df5b60893f488392c7401945500a
     Pseudo is Projector augmented-wave + core cor, Zval = 14.0
     Generated using &quot;atomic&quot; code by A. Dal Corso  v.6.2.2
     Shape of augmentation charge: PSQ
     Using radial grid of 1273 points,  6 beta functions with: 
                l(1) =   0
                l(2) =   0
                l(3) =   1
                l(4) =   1
                l(5) =   2
                l(6) =   2
     Q(r) pseudized with 0 coefficients 


     PseudoPot. # 2 for Se read from file:
     /home/alessandro_rotondi/q-e/pseudo/Se.pbe-dn-kjpaw_psl.1.0.0.UPF
     MD5 check sum: ac240dd2bae32a30e0bf3a38df9c8785
     Pseudo is Projector augmented-wave + core cor, Zval = 16.0
     Generated using &quot;atomic&quot; code by A. Dal Corso  v.6.3
     Shape of augmentation charge: PSQ
     Using radial grid of 1211 points,  6 beta functions with: 
                l(1) =   0
                l(2) =   0
                l(3) =   1
                l(4) =   1
                l(5) =   2
                l(6) =   2
     Q(r) pseudized with 0 coefficients 


     atomic species   valence    mass     pseudopotential
        W             14.00   183.84000     W ( 1.00)
        Se            16.00    78.96000     Se( 1.00)

     24 Sym. Ops., with inversion, found (12 have fractional translation)


                                    s                        frac. trans.

      isym =  1     identity                                     

 cryst.   s( 1) = (     1          0          0      )
                  (     0          1          0      )
                  (     0          0          1      )

 cart.    s( 1) = (  1.0000000  0.0000000  0.0000000 )
                  (  0.0000000  1.0000000  0.0000000 )
                  (  0.0000000  0.0000000  1.0000000 )


      isym =  2     180 deg rotation - cart. axis [0,0,1]        

 cryst.   s( 2) = (    -1          0          0      )    f =(  0.0000000 )
                  (     0         -1          0      )       (  0.0000000 )
                  (     0          0          1      )       (  0.4999990 )

 cart.    s( 2) = ( -1.0000000  0.0000000  0.0000000 )    f =(  0.0000000 )
                  (  0.0000000 -1.0000000  0.0000000 )       (  0.0000000 )
                  (  0.0000000  0.0000000  1.0000000 )       (  2.2646007 )


      isym =  3     180 deg rotation - cart. axis [0,1,0]        

 cryst.   s( 3) = (    -1          0          0      )    f =(  0.0000010 )
                  (     1          1          0      )       (  0.0000000 )
                  (     0          0         -1      )       ( -0.4999980 )

 cart.    s( 3) = ( -1.0000000  0.0000000  0.0000000 )    f =(  0.0000010 )
                  (  0.0000000  1.0000000  0.0000000 )       (  0.0000000 )
                  (  0.0000000  0.0000000 -1.0000000 )       ( -2.2645961 )


      isym =  4     180 deg rotation - cart. axis [1,0,0]        

 cryst.   s( 4) = (     1          0          0      )
                  (    -1         -1          0      )
                  (     0          0         -1      )

 cart.    s( 4) = (  1.0000000  0.0000000  0.0000000 )
                  (  0.0000000 -1.0000000  0.0000000 )
                  (  0.0000000  0.0000000 -1.0000000 )


      isym =  5      60 deg rotation - cryst. axis [0,0,1]       

 cryst.   s( 5) = (     1          1          0      )    f =(  0.0000010 )
                  (    -1          0          0      )       (  0.0000000 )
                  (     0          0          1      )       (  0.4999990 )

 cart.    s( 5) = (  0.5000000 -0.8660254  0.0000000 )    f =(  0.0000010 )
                  (  0.8660254  0.5000000  0.0000000 )       (  0.0000000 )
                  (  0.0000000  0.0000000  1.0000000 )       (  2.2646007 )


      isym =  6      60 deg rotation - cryst. axis [0,0,-1]      

 cryst.   s( 6) = (     0         -1          0      )    f =(  0.0000000 )
                  (     1          1          0      )       ( -0.0000010 )
                  (     0          0          1      )       (  0.4999990 )

 cart.    s( 6) = (  0.5000000  0.8660254  0.0000000 )    f =(  0.0000005 )
                  ( -0.8660254  0.5000000  0.0000000 )       ( -0.0000009 )
                  (  0.0000000  0.0000000  1.0000000 )       (  2.2646007 )


      isym =  7     120 deg rotation - cryst. axis [0,0,1]       

 cryst.   s( 7) = (     0          1          0      )
                  (    -1         -1          0      )
                  (     0          0          1      )

 cart.    s( 7) = ( -0.5000000 -0.8660254  0.0000000 )
                  (  0.8660254 -0.5000000  0.0000000 )
                  (  0.0000000  0.0000000  1.0000000 )


      isym =  8     120 deg rotation - cryst. axis [0,0,-1]      

 cryst.   s( 8) = (    -1         -1          0      )
                  (     1          0          0      )
                  (     0          0          1      )

 cart.    s( 8) = ( -0.5000000  0.8660254  0.0000000 )
                  ( -0.8660254 -0.5000000  0.0000000 )
                  (  0.0000000  0.0000000  1.0000000 )


      isym =  9     180 deg rotation - cryst. axis [1,-1,0]      

 cryst.   s( 9) = (     0         -1          0      )    f =(  0.0000000 )
                  (    -1          0          0      )       (  0.0000000 )
                  (     0          0         -1      )       ( -0.4999980 )

 cart.    s( 9) = (  0.5000000 -0.8660254  0.0000000 )    f =(  0.0000000 )
                  ( -0.8660254 -0.5000000  0.0000000 )       (  0.0000000 )
                  (  0.0000000  0.0000000 -1.0000000 )       ( -2.2645961 )


      isym = 10     180 deg rotation - cryst. axis [2,1,0]       

 cryst.   s(10) = (     1          1          0      )    f =(  0.0000000 )
                  (     0         -1          0      )       ( -0.0000010 )
                  (     0          0         -1      )       ( -0.4999980 )

 cart.    s(10) = (  0.5000000  0.8660254  0.0000000 )    f =(  0.0000005 )
                  (  0.8660254 -0.5000000  0.0000000 )       ( -0.0000009 )
                  (  0.0000000  0.0000000 -1.0000000 )       ( -2.2645961 )


      isym = 11     180 deg rotation - cryst. axis [0,1,0]       

 cryst.   s(11) = (    -1         -1          0      )
                  (     0          1          0      )
                  (     0          0         -1      )

 cart.    s(11) = ( -0.5000000 -0.8660254  0.0000000 )
                  ( -0.8660254  0.5000000  0.0000000 )
                  (  0.0000000  0.0000000 -1.0000000 )


      isym = 12     180 deg rotation - cryst. axis [1,1,0]       

 cryst.   s(12) = (     0          1          0      )
                  (     1          0          0      )
                  (     0          0         -1      )

 cart.    s(12) = ( -0.5000000  0.8660254  0.0000000 )
                  (  0.8660254  0.5000000  0.0000000 )
                  (  0.0000000  0.0000000 -1.0000000 )


      isym = 13     inversion                                    

 cryst.   s(13) = (    -1          0          0      )
                  (     0         -1          0      )
                  (     0          0         -1      )

 cart.    s(13) = ( -1.0000000  0.0000000  0.0000000 )
                  (  0.0000000 -1.0000000  0.0000000 )
                  (  0.0000000  0.0000000 -1.0000000 )


      isym = 14     inv. 180 deg rotation - cart. axis [0,0,1]   

 cryst.   s(14) = (     1          0          0      )    f =(  0.0000000 )
                  (     0          1          0      )       (  0.0000000 )
                  (     0          0         -1      )       ( -0.4999980 )

 cart.    s(14) = (  1.0000000  0.0000000  0.0000000 )    f =(  0.0000000 )
                  (  0.0000000  1.0000000  0.0000000 )       (  0.0000000 )
                  (  0.0000000  0.0000000 -1.0000000 )       ( -2.2645961 )


      isym = 15     inv. 180 deg rotation - cart. axis [0,1,0]   

 cryst.   s(15) = (     1          0          0      )    f =(  0.0000010 )
                  (    -1         -1          0      )       (  0.0000000 )
                  (     0          0          1      )       (  0.4999990 )

 cart.    s(15) = (  1.0000000  0.0000000  0.0000000 )    f =(  0.0000010 )
                  (  0.0000000 -1.0000000  0.0000000 )       (  0.0000000 )
                  (  0.0000000  0.0000000  1.0000000 )       (  2.2646007 )


      isym = 16     inv. 180 deg rotation - cart. axis [1,0,0]   

 cryst.   s(16) = (    -1          0          0      )
                  (     1          1          0      )
                  (     0          0          1      )

 cart.    s(16) = ( -1.0000000  0.0000000  0.0000000 )
                  (  0.0000000  1.0000000  0.0000000 )
                  (  0.0000000  0.0000000  1.0000000 )


      isym = 17     inv.  60 deg rotation - cryst. axis [0,0,1]  

 cryst.   s(17) = (    -1         -1          0      )    f =(  0.0000010 )
                  (     1          0          0      )       (  0.0000000 )
                  (     0          0         -1      )       ( -0.4999980 )

 cart.    s(17) = ( -0.5000000  0.8660254  0.0000000 )    f =(  0.0000010 )
                  ( -0.8660254 -0.5000000  0.0000000 )       (  0.0000000 )
                  (  0.0000000  0.0000000 -1.0000000 )       ( -2.2645961 )


      isym = 18     inv.  60 deg rotation - cryst. axis [0,0,-1] 

 cryst.   s(18) = (     0          1          0      )    f =(  0.0000000 )
                  (    -1         -1          0      )       ( -0.0000010 )
                  (     0          0         -1      )       ( -0.4999980 )

 cart.    s(18) = ( -0.5000000 -0.8660254  0.0000000 )    f =(  0.0000005 )
                  (  0.8660254 -0.5000000  0.0000000 )       ( -0.0000009 )
                  (  0.0000000  0.0000000 -1.0000000 )       ( -2.2645961 )


      isym = 19     inv. 120 deg rotation - cryst. axis [0,0,1]  

 cryst.   s(19) = (     0         -1          0      )
                  (     1          1          0      )
                  (     0          0         -1      )

 cart.    s(19) = (  0.5000000  0.8660254  0.0000000 )
                  ( -0.8660254  0.5000000  0.0000000 )
                  (  0.0000000  0.0000000 -1.0000000 )


      isym = 20     inv. 120 deg rotation - cryst. axis [0,0,-1] 

 cryst.   s(20) = (     1          1          0      )
                  (    -1          0          0      )
                  (     0          0         -1      )

 cart.    s(20) = (  0.5000000 -0.8660254  0.0000000 )
                  (  0.8660254  0.5000000  0.0000000 )
                  (  0.0000000  0.0000000 -1.0000000 )


      isym = 21     inv. 180 deg rotation - cryst. axis [1,-1,0] 

 cryst.   s(21) = (     0          1          0      )    f =(  0.0000000 )
                  (     1          0          0      )       (  0.0000000 )
                  (     0          0          1      )       (  0.4999990 )

 cart.    s(21) = ( -0.5000000  0.8660254  0.0000000 )    f =( -0.0000000 )
                  (  0.8660254  0.5000000  0.0000000 )       (  0.0000000 )
                  (  0.0000000  0.0000000  1.0000000 )       (  2.2646007 )


      isym = 22     inv. 180 deg rotation - cryst. axis [2,1,0]  

 cryst.   s(22) = (    -1         -1          0      )    f =(  0.0000000 )
                  (     0          1          0      )       ( -0.0000010 )
                  (     0          0          1      )       (  0.4999990 )

 cart.    s(22) = ( -0.5000000 -0.8660254  0.0000000 )    f =(  0.0000005 )
                  ( -0.8660254  0.5000000  0.0000000 )       ( -0.0000009 )
                  (  0.0000000  0.0000000  1.0000000 )       (  2.2646007 )


      isym = 23     inv. 180 deg rotation - cryst. axis [0,1,0]  

 cryst.   s(23) = (     1          1          0      )
                  (     0         -1          0      )
                  (     0          0          1      )

 cart.    s(23) = (  0.5000000  0.8660254  0.0000000 )
                  (  0.8660254 -0.5000000  0.0000000 )
                  (  0.0000000  0.0000000  1.0000000 )


      isym = 24     inv. 180 deg rotation - cryst. axis [1,1,0]  

 cryst.   s(24) = (     0         -1          0      )
                  (    -1          0          0      )
                  (     0          0          1      )

 cart.    s(24) = (  0.5000000 -0.8660254  0.0000000 )
                  ( -0.8660254 -0.5000000  0.0000000 )
                  (  0.0000000  0.0000000  1.0000000 )


     point group D_6h(6/mmm)
     there are 12 classes
     the character table:

       E     2C6   2C3   C2    3C2'  3C2'' i     2S3   2S6   s_h   3s_d  3s_v 
A_1g   1.00  1.00  1.00  1.00  1.00  1.00  1.00  1.00  1.00  1.00  1.00  1.00
A_2g   1.00  1.00  1.00  1.00 -1.00 -1.00  1.00  1.00  1.00  1.00 -1.00 -1.00
B_1g   1.00 -1.00  1.00 -1.00  1.00 -1.00  1.00 -1.00  1.00 -1.00  1.00 -1.00
B_2g   1.00 -1.00  1.00 -1.00 -1.00  1.00  1.00 -1.00  1.00 -1.00 -1.00  1.00
E_1g   2.00  1.00 -1.00 -2.00  0.00  0.00  2.00  1.00 -1.00 -2.00  0.00  0.00
E_2g   2.00 -1.00 -1.00  2.00  0.00  0.00  2.00 -1.00 -1.00  2.00  0.00  0.00
A_1u   1.00  1.00  1.00  1.00  1.00  1.00 -1.00 -1.00 -1.00 -1.00 -1.00 -1.00
A_2u   1.00  1.00  1.00  1.00 -1.00 -1.00 -1.00 -1.00 -1.00 -1.00  1.00  1.00
B_1u   1.00 -1.00  1.00 -1.00  1.00 -1.00 -1.00  1.00 -1.00  1.00 -1.00  1.00
B_2u   1.00 -1.00  1.00 -1.00 -1.00  1.00 -1.00  1.00 -1.00  1.00  1.00 -1.00
E_1u   2.00  1.00 -1.00 -2.00  0.00  0.00 -2.00 -1.00  1.00  2.00  0.00  0.00
E_2u   2.00 -1.00 -1.00  2.00  0.00  0.00 -2.00  1.00  1.00 -2.00  0.00  0.00

     the symmetry operations in each class and the name of the first element:

     E        1
          identity                                               
     2C6      5    6
           60 deg rotation - cryst. axis [0,0,1]                 
     2C3      7    8
          120 deg rotation - cryst. axis [0,0,1]                 
     C2       2
          180 deg rotation - cart. axis [0,0,1]                  
     3C2'     4   12   11
          180 deg rotation - cart. axis [1,0,0]                  
     3C2''    3    9   10
          180 deg rotation - cart. axis [0,1,0]                  
     i       13
          inversion                                              
     2S3     17   18
          inv.  60 deg rotation - cryst. axis [0,0,1]            
     2S6     19   20
          inv. 120 deg rotation - cryst. axis [0,0,1]            
     s_h     14
          inv. 180 deg rotation - cart. axis [0,0,1]             
     3s_d    16   24   23
          inv. 180 deg rotation - cart. axis [1,0,0]             
     3s_v    15   21   22
          inv. 180 deg rotation - cart. axis [0,1,0]             

   Cartesian axes

     site n.     atom                  positions (alat units)
         1           W   tau(   1) = (  -0.0000005   0.5773506   1.1322981  )
         2           W   tau(   2) = (   0.5000005   0.2886748   3.3968987  )
         3           Se  tau(   3) = (   0.5000005   0.2886748   1.6354393  )
         4           Se  tau(   4) = (  -0.0000005   0.5773506   3.9000354  )
         5           Se  tau(   5) = (   0.5000005   0.2886748   0.6291614  )
         6           Se  tau(   6) = (  -0.0000005   0.5773506   2.8937575  )

   Crystallographic axes

     site n.     atom                  positions (cryst. coord.)
         1           W   tau(   1) = (  0.3333330  0.6666670  0.2499990  )
         2           W   tau(   2) = (  0.6666670  0.3333330  0.7499980  )
         3           Se  tau(   3) = (  0.6666670  0.3333330  0.3610871  )
         4           Se  tau(   4) = (  0.3333330  0.6666670  0.8610851  )
         5           Se  tau(   5) = (  0.6666670  0.3333330  0.1389119  )
         6           Se  tau(   6) = (  0.3333330  0.6666670  0.6389099  )

     number of k points=   270
                       cart. coord. in units 2pi/alat
        k(    1) = (   0.0000000   0.0000000   0.0000000), wk =   0.0004883
        k(    2) = (   0.0000000   0.0000000   0.0137993), wk =   0.0009766
        k(    3) = (   0.0000000   0.0000000   0.0275986), wk =   0.0009766
        k(    4) = (   0.0000000   0.0000000   0.0413979), wk =   0.0009766
        k(    5) = (   0.0000000   0.0000000   0.0551973), wk =   0.0009766
        k(    6) = (   0.0000000   0.0000000   0.0689966), wk =   0.0009766
        k(    7) = (   0.0000000   0.0000000   0.0827959), wk =   0.0009766
        k(    8) = (   0.0000000   0.0000000   0.0965952), wk =   0.0009766
        k(    9) = (   0.0000000   0.0000000  -0.1103945), wk =   0.0004883
        k(   10) = (   0.0000000   0.0721688   0.0000000), wk =   0.0029297
        k(   11) = (   0.0000000   0.0721688   0.0137993), wk =   0.0058594
        k(   12) = (   0.0000000   0.0721688   0.0275986), wk =   0.0058594
        k(   13) = (   0.0000000   0.0721688   0.0413979), wk =   0.0058594
        k(   14) = (   0.0000000   0.0721688   0.0551973), wk =   0.0058594
        k(   15) = (   0.0000000   0.0721688   0.0689966), wk =   0.0058594
        k(   16) = (   0.0000000   0.0721688   0.0827959), wk =   0.0058594
        k(   17) = (   0.0000000   0.0721688   0.0965952), wk =   0.0058594
        k(   18) = (   0.0000000   0.0721688  -0.1103945), wk =   0.0029297
        k(   19) = (   0.0000000   0.1443376   0.0000000), wk =   0.0029297
        k(   20) = (   0.0000000   0.1443376   0.0137993), wk =   0.0058594
        k(   21) = (   0.0000000   0.1443376   0.0275986), wk =   0.0058594
        k(   22) = (   0.0000000   0.1443376   0.0413979), wk =   0.0058594
        k(   23) = (   0.0000000   0.1443376   0.0551973), wk =   0.0058594
        k(   24) = (   0.0000000   0.1443376   0.0689966), wk =   0.0058594
        k(   25) = (   0.0000000   0.1443376   0.0827959), wk =   0.0058594
        k(   26) = (   0.0000000   0.1443376   0.0965952), wk =   0.0058594
        k(   27) = (   0.0000000   0.1443376  -0.1103945), wk =   0.0029297
        k(   28) = (   0.0000000   0.2165064   0.0000000), wk =   0.0029297
        k(   29) = (   0.0000000   0.2165064   0.0137993), wk =   0.0058594
        k(   30) = (   0.0000000   0.2165064   0.0275986), wk =   0.0058594
        k(   31) = (   0.0000000   0.2165064   0.0413979), wk =   0.0058594
        k(   32) = (   0.0000000   0.2165064   0.0551973), wk =   0.0058594
        k(   33) = (   0.0000000   0.2165064   0.0689966), wk =   0.0058594
        k(   34) = (   0.0000000   0.2165064   0.0827959), wk =   0.0058594
        k(   35) = (   0.0000000   0.2165064   0.0965952), wk =   0.0058594
        k(   36) = (   0.0000000   0.2165064  -0.1103945), wk =   0.0029297
        k(   37) = (   0.0000000   0.2886751   0.0000000), wk =   0.0029297
        k(   38) = (   0.0000000   0.2886751   0.0137993), wk =   0.0058594
        k(   39) = (   0.0000000   0.2886751   0.0275986), wk =   0.0058594
        k(   40) = (   0.0000000   0.2886751   0.0413979), wk =   0.0058594
        k(   41) = (   0.0000000   0.2886751   0.0551973), wk =   0.0058594
        k(   42) = (   0.0000000   0.2886751   0.0689966), wk =   0.0058594
        k(   43) = (   0.0000000   0.2886751   0.0827959), wk =   0.0058594
        k(   44) = (   0.0000000   0.2886751   0.0965952), wk =   0.0058594
        k(   45) = (   0.0000000   0.2886751  -0.1103945), wk =   0.0029297
        k(   46) = (   0.0000000   0.3608439   0.0000000), wk =   0.0029297
        k(   47) = (   0.0000000   0.3608439   0.0137993), wk =   0.0058594
        k(   48) = (   0.0000000   0.3608439   0.0275986), wk =   0.0058594
        k(   49) = (   0.0000000   0.3608439   0.0413979), wk =   0.0058594
        k(   50) = (   0.0000000   0.3608439   0.0551973), wk =   0.0058594
        k(   51) = (   0.0000000   0.3608439   0.0689966), wk =   0.0058594
        k(   52) = (   0.0000000   0.3608439   0.0827959), wk =   0.0058594
        k(   53) = (   0.0000000   0.3608439   0.0965952), wk =   0.0058594
        k(   54) = (   0.0000000   0.3608439  -0.1103945), wk =   0.0029297
        k(   55) = (   0.0000000   0.4330127   0.0000000), wk =   0.0029297
        k(   56) = (   0.0000000   0.4330127   0.0137993), wk =   0.0058594
        k(   57) = (   0.0000000   0.4330127   0.0275986), wk =   0.0058594
        k(   58) = (   0.0000000   0.4330127   0.0413979), wk =   0.0058594
        k(   59) = (   0.0000000   0.4330127   0.0551973), wk =   0.0058594
        k(   60) = (   0.0000000   0.4330127   0.0689966), wk =   0.0058594
        k(   61) = (   0.0000000   0.4330127   0.0827959), wk =   0.0058594
        k(   62) = (   0.0000000   0.4330127   0.0965952), wk =   0.0058594
        k(   63) = (   0.0000000   0.4330127  -0.1103945), wk =   0.0029297
        k(   64) = (   0.0000000   0.5051815   0.0000000), wk =   0.0029297
        k(   65) = (   0.0000000   0.5051815   0.0137993), wk =   0.0058594
        k(   66) = (   0.0000000   0.5051815   0.0275986), wk =   0.0058594
        k(   67) = (   0.0000000   0.5051815   0.0413979), wk =   0.0058594
        k(   68) = (   0.0000000   0.5051815   0.0551973), wk =   0.0058594
        k(   69) = (   0.0000000   0.5051815   0.0689966), wk =   0.0058594
        k(   70) = (   0.0000000   0.5051815   0.0827959), wk =   0.0058594
        k(   71) = (   0.0000000   0.5051815   0.0965952), wk =   0.0058594
        k(   72) = (   0.0000000   0.5051815  -0.1103945), wk =   0.0029297
        k(   73) = (   0.0000000  -0.5773503   0.0000000), wk =   0.0014648
        k(   74) = (   0.0000000  -0.5773503   0.0137993), wk =   0.0029297
        k(   75) = (   0.0000000  -0.5773503   0.0275986), wk =   0.0029297
        k(   76) = (   0.0000000  -0.5773503   0.0413979), wk =   0.0029297
        k(   77) = (   0.0000000  -0.5773503   0.0551973), wk =   0.0029297
        k(   78) = (   0.0000000  -0.5773503   0.0689966), wk =   0.0029297
        k(   79) = (   0.0000000  -0.5773503   0.0827959), wk =   0.0029297
        k(   80) = (   0.0000000  -0.5773503   0.0965952), wk =   0.0029297
        k(   81) = (   0.0000000  -0.5773503  -0.1103945), wk =   0.0014648
        k(   82) = (   0.0625000   0.1082532   0.0000000), wk =   0.0029297
        k(   83) = (   0.0625000   0.1082532   0.0137993), wk =   0.0058594
        k(   84) = (   0.0625000   0.1082532   0.0275986), wk =   0.0058594
        k(   85) = (   0.0625000   0.1082532   0.0413979), wk =   0.0058594
        k(   86) = (   0.0625000   0.1082532   0.0551973), wk =   0.0058594
        k(   87) = (   0.0625000   0.1082532   0.0689966), wk =   0.0058594
        k(   88) = (   0.0625000   0.1082532   0.0827959), wk =   0.0058594
        k(   89) = (   0.0625000   0.1082532   0.0965952), wk =   0.0058594
        k(   90) = (   0.0625000   0.1082532  -0.1103945), wk =   0.0029297
        k(   91) = (   0.0625000   0.1804220   0.0000000), wk =   0.0058594
        k(   92) = (   0.0625000   0.1804220   0.0137993), wk =   0.0117188
        k(   93) = (   0.0625000   0.1804220   0.0275986), wk =   0.0117188
        k(   94) = (   0.0625000   0.1804220   0.0413979), wk =   0.0117188
        k(   95) = (   0.0625000   0.1804220   0.0551973), wk =   0.0117188
        k(   96) = (   0.0625000   0.1804220   0.0689966), wk =   0.0117188
        k(   97) = (   0.0625000   0.1804220   0.0827959), wk =   0.0117188
        k(   98) = (   0.0625000   0.1804220   0.0965952), wk =   0.0117188
        k(   99) = (   0.0625000   0.1804220  -0.1103945), wk =   0.0058594
        k(  100) = (   0.0625000   0.2525907   0.0000000), wk =   0.0058594
        k(  101) = (   0.0625000   0.2525907   0.0137993), wk =   0.0117188
        k(  102) = (   0.0625000   0.2525907   0.0275986), wk =   0.0117188
        k(  103) = (   0.0625000   0.2525907   0.0413979), wk =   0.0117188
        k(  104) = (   0.0625000   0.2525907   0.0551973), wk =   0.0117188
        k(  105) = (   0.0625000   0.2525907   0.0689966), wk =   0.0117188
        k(  106) = (   0.0625000   0.2525907   0.0827959), wk =   0.0117188
        k(  107) = (   0.0625000   0.2525907   0.0965952), wk =   0.0117188
        k(  108) = (   0.0625000   0.2525907  -0.1103945), wk =   0.0058594
        k(  109) = (   0.0625000   0.3247595   0.0000000), wk =   0.0058594
        k(  110) = (   0.0625000   0.3247595   0.0137993), wk =   0.0117188
        k(  111) = (   0.0625000   0.3247595   0.0275986), wk =   0.0117188
        k(  112) = (   0.0625000   0.3247595   0.0413979), wk =   0.0117188
        k(  113) = (   0.0625000   0.3247595   0.0551973), wk =   0.0117188
        k(  114) = (   0.0625000   0.3247595   0.0689966), wk =   0.0117188
        k(  115) = (   0.0625000   0.3247595   0.0827959), wk =   0.0117188
        k(  116) = (   0.0625000   0.3247595   0.0965952), wk =   0.0117188
        k(  117) = (   0.0625000   0.3247595  -0.1103945), wk =   0.0058594
        k(  118) = (   0.0625000   0.3969283   0.0000000), wk =   0.0058594
        k(  119) = (   0.0625000   0.3969283   0.0137993), wk =   0.0117188
        k(  120) = (   0.0625000   0.3969283   0.0275986), wk =   0.0117188
        k(  121) = (   0.0625000   0.3969283   0.0413979), wk =   0.0117188
        k(  122) = (   0.0625000   0.3969283   0.0551973), wk =   0.0117188
        k(  123) = (   0.0625000   0.3969283   0.0689966), wk =   0.0117188
        k(  124) = (   0.0625000   0.3969283   0.0827959), wk =   0.0117188
        k(  125) = (   0.0625000   0.3969283   0.0965952), wk =   0.0117188
        k(  126) = (   0.0625000   0.3969283  -0.1103945), wk =   0.0058594
        k(  127) = (   0.0625000   0.4690971   0.0000000), wk =   0.0058594
        k(  128) = (   0.0625000   0.4690971   0.0137993), wk =   0.0117188
        k(  129) = (   0.0625000   0.4690971   0.0275986), wk =   0.0117188
        k(  130) = (   0.0625000   0.4690971   0.0413979), wk =   0.0117188
        k(  131) = (   0.0625000   0.4690971   0.0551973), wk =   0.0117188
        k(  132) = (   0.0625000   0.4690971   0.0689966), wk =   0.0117188
        k(  133) = (   0.0625000   0.4690971   0.0827959), wk =   0.0117188
        k(  134) = (   0.0625000   0.4690971   0.0965952), wk =   0.0117188
        k(  135) = (   0.0625000   0.4690971  -0.1103945), wk =   0.0058594
        k(  136) = (   0.0625000   0.5412659   0.0000000), wk =   0.0058594
        k(  137) = (   0.0625000   0.5412659   0.0137993), wk =   0.0117188
        k(  138) = (   0.0625000   0.5412659   0.0275986), wk =   0.0117188
        k(  139) = (   0.0625000   0.5412659   0.0413979), wk =   0.0117188
        k(  140) = (   0.0625000   0.5412659   0.0551973), wk =   0.0117188
        k(  141) = (   0.0625000   0.5412659   0.0689966), wk =   0.0117188
        k(  142) = (   0.0625000   0.5412659   0.0827959), wk =   0.0117188
        k(  143) = (   0.0625000   0.5412659   0.0965952), wk =   0.0117188
        k(  144) = (   0.0625000   0.5412659  -0.1103945), wk =   0.0058594
        k(  145) = (   0.1250000   0.2165064   0.0000000), wk =   0.0029297
        k(  146) = (   0.1250000   0.2165064   0.0137993), wk =   0.0058594
        k(  147) = (   0.1250000   0.2165064   0.0275986), wk =   0.0058594
        k(  148) = (   0.1250000   0.2165064   0.0413979), wk =   0.0058594
        k(  149) = (   0.1250000   0.2165064   0.0551973), wk =   0.0058594
        k(  150) = (   0.1250000   0.2165064   0.0689966), wk =   0.0058594
        k(  151) = (   0.1250000   0.2165064   0.0827959), wk =   0.0058594
        k(  152) = (   0.1250000   0.2165064   0.0965952), wk =   0.0058594
        k(  153) = (   0.1250000   0.2165064  -0.1103945), wk =   0.0029297
        k(  154) = (   0.1250000   0.2886751   0.0000000), wk =   0.0058594
        k(  155) = (   0.1250000   0.2886751   0.0137993), wk =   0.0117188
        k(  156) = (   0.1250000   0.2886751   0.0275986), wk =   0.0117188
        k(  157) = (   0.1250000   0.2886751   0.0413979), wk =   0.0117188
        k(  158) = (   0.1250000   0.2886751   0.0551973), wk =   0.0117188
        k(  159) = (   0.1250000   0.2886751   0.0689966), wk =   0.0117188
        k(  160) = (   0.1250000   0.2886751   0.0827959), wk =   0.0117188
        k(  161) = (   0.1250000   0.2886751   0.0965952), wk =   0.0117188
        k(  162) = (   0.1250000   0.2886751  -0.1103945), wk =   0.0058594
        k(  163) = (   0.1250000   0.3608439   0.0000000), wk =   0.0058594
        k(  164) = (   0.1250000   0.3608439   0.0137993), wk =   0.0117188
        k(  165) = (   0.1250000   0.3608439   0.0275986), wk =   0.0117188
        k(  166) = (   0.1250000   0.3608439   0.0413979), wk =   0.0117188
        k(  167) = (   0.1250000   0.3608439   0.0551973), wk =   0.0117188
        k(  168) = (   0.1250000   0.3608439   0.0689966), wk =   0.0117188
        k(  169) = (   0.1250000   0.3608439   0.0827959), wk =   0.0117188
        k(  170) = (   0.1250000   0.3608439   0.0965952), wk =   0.0117188
        k(  171) = (   0.1250000   0.3608439  -0.1103945), wk =   0.0058594
        k(  172) = (   0.1250000   0.4330127   0.0000000), wk =   0.0058594
        k(  173) = (   0.1250000   0.4330127   0.0137993), wk =   0.0117188
        k(  174) = (   0.1250000   0.4330127   0.0275986), wk =   0.0117188
        k(  175) = (   0.1250000   0.4330127   0.0413979), wk =   0.0117188
        k(  176) = (   0.1250000   0.4330127   0.0551973), wk =   0.0117188
        k(  177) = (   0.1250000   0.4330127   0.0689966), wk =   0.0117188
        k(  178) = (   0.1250000   0.4330127   0.0827959), wk =   0.0117188
        k(  179) = (   0.1250000   0.4330127   0.0965952), wk =   0.0117188
        k(  180) = (   0.1250000   0.4330127  -0.1103945), wk =   0.0058594
        k(  181) = (   0.1250000   0.5051815   0.0000000), wk =   0.0058594
        k(  182) = (   0.1250000   0.5051815   0.0137993), wk =   0.0117188
        k(  183) = (   0.1250000   0.5051815   0.0275986), wk =   0.0117188
        k(  184) = (   0.1250000   0.5051815   0.0413979), wk =   0.0117188
        k(  185) = (   0.1250000   0.5051815   0.0551973), wk =   0.0117188
        k(  186) = (   0.1250000   0.5051815   0.0689966), wk =   0.0117188
        k(  187) = (   0.1250000   0.5051815   0.0827959), wk =   0.0117188
        k(  188) = (   0.1250000   0.5051815   0.0965952), wk =   0.0117188
        k(  189) = (   0.1250000   0.5051815  -0.1103945), wk =   0.0058594
        k(  190) = (   0.1250000   0.5773503   0.0000000), wk =   0.0029297
        k(  191) = (   0.1250000   0.5773503   0.0137993), wk =   0.0058594
        k(  192) = (   0.1250000   0.5773503   0.0275986), wk =   0.0058594
        k(  193) = (   0.1250000   0.5773503   0.0413979), wk =   0.0058594
        k(  194) = (   0.1250000   0.5773503   0.0551973), wk =   0.0058594
        k(  195) = (   0.1250000   0.5773503   0.0689966), wk =   0.0058594
        k(  196) = (   0.1250000   0.5773503   0.0827959), wk =   0.0058594
        k(  197) = (   0.1250000   0.5773503   0.0965952), wk =   0.0058594
        k(  198) = (   0.1250000   0.5773503  -0.1103945), wk =   0.0029297
        k(  199) = (   0.1875000   0.3247595   0.0000000), wk =   0.0029297
        k(  200) = (   0.1875000   0.3247595   0.0137993), wk =   0.0058594
        k(  201) = (   0.1875000   0.3247595   0.0275986), wk =   0.0058594
        k(  202) = (   0.1875000   0.3247595   0.0413979), wk =   0.0058594
        k(  203) = (   0.1875000   0.3247595   0.0551973), wk =   0.0058594
        k(  204) = (   0.1875000   0.3247595   0.0689966), wk =   0.0058594
        k(  205) = (   0.1875000   0.3247595   0.0827959), wk =   0.0058594
        k(  206) = (   0.1875000   0.3247595   0.0965952), wk =   0.0058594
        k(  207) = (   0.1875000   0.3247595  -0.1103945), wk =   0.0029297
        k(  208) = (   0.1875000   0.3969283   0.0000000), wk =   0.0058594
        k(  209) = (   0.1875000   0.3969283   0.0137993), wk =   0.0117188
        k(  210) = (   0.1875000   0.3969283   0.0275986), wk =   0.0117188
        k(  211) = (   0.1875000   0.3969283   0.0413979), wk =   0.0117188
        k(  212) = (   0.1875000   0.3969283   0.0551973), wk =   0.0117188
        k(  213) = (   0.1875000   0.3969283   0.0689966), wk =   0.0117188
        k(  214) = (   0.1875000   0.3969283   0.0827959), wk =   0.0117188
        k(  215) = (   0.1875000   0.3969283   0.0965952), wk =   0.0117188
        k(  216) = (   0.1875000   0.3969283  -0.1103945), wk =   0.0058594
        k(  217) = (   0.1875000   0.4690971   0.0000000), wk =   0.0058594
        k(  218) = (   0.1875000   0.4690971   0.0137993), wk =   0.0117188
        k(  219) = (   0.1875000   0.4690971   0.0275986), wk =   0.0117188
        k(  220) = (   0.1875000   0.4690971   0.0413979), wk =   0.0117188
        k(  221) = (   0.1875000   0.4690971   0.0551973), wk =   0.0117188
        k(  222) = (   0.1875000   0.4690971   0.0689966), wk =   0.0117188
        k(  223) = (   0.1875000   0.4690971   0.0827959), wk =   0.0117188
        k(  224) = (   0.1875000   0.4690971   0.0965952), wk =   0.0117188
        k(  225) = (   0.1875000   0.4690971  -0.1103945), wk =   0.0058594
        k(  226) = (   0.1875000   0.5412659   0.0000000), wk =   0.0058594
        k(  227) = (   0.1875000   0.5412659   0.0137993), wk =   0.0117188
        k(  228) = (   0.1875000   0.5412659   0.0275986), wk =   0.0117188
        k(  229) = (   0.1875000   0.5412659   0.0413979), wk =   0.0117188
        k(  230) = (   0.1875000   0.5412659   0.0551973), wk =   0.0117188
        k(  231) = (   0.1875000   0.5412659   0.0689966), wk =   0.0117188
        k(  232) = (   0.1875000   0.5412659   0.0827959), wk =   0.0117188
        k(  233) = (   0.1875000   0.5412659   0.0965952), wk =   0.0117188
        k(  234) = (   0.1875000   0.5412659  -0.1103945), wk =   0.0058594
        k(  235) = (   0.2500000   0.4330127   0.0000000), wk =   0.0029297
        k(  236) = (   0.2500000   0.4330127   0.0137993), wk =   0.0058594
        k(  237) = (   0.2500000   0.4330127   0.0275986), wk =   0.0058594
        k(  238) = (   0.2500000   0.4330127   0.0413979), wk =   0.0058594
        k(  239) = (   0.2500000   0.4330127   0.0551973), wk =   0.0058594
        k(  240) = (   0.2500000   0.4330127   0.0689966), wk =   0.0058594
        k(  241) = (   0.2500000   0.4330127   0.0827959), wk =   0.0058594
        k(  242) = (   0.2500000   0.4330127   0.0965952), wk =   0.0058594
        k(  243) = (   0.2500000   0.4330127  -0.1103945), wk =   0.0029297
        k(  244) = (   0.2500000   0.5051815   0.0000000), wk =   0.0058594
        k(  245) = (   0.2500000   0.5051815   0.0137993), wk =   0.0117188
        k(  246) = (   0.2500000   0.5051815   0.0275986), wk =   0.0117188
        k(  247) = (   0.2500000   0.5051815   0.0413979), wk =   0.0117188
        k(  248) = (   0.2500000   0.5051815   0.0551973), wk =   0.0117188
        k(  249) = (   0.2500000   0.5051815   0.0689966), wk =   0.0117188
        k(  250) = (   0.2500000   0.5051815   0.0827959), wk =   0.0117188
        k(  251) = (   0.2500000   0.5051815   0.0965952), wk =   0.0117188
        k(  252) = (   0.2500000   0.5051815  -0.1103945), wk =   0.0058594
        k(  253) = (   0.2500000   0.5773503   0.0000000), wk =   0.0029297
        k(  254) = (   0.2500000   0.5773503   0.0137993), wk =   0.0058594
        k(  255) = (   0.2500000   0.5773503   0.0275986), wk =   0.0058594
        k(  256) = (   0.2500000   0.5773503   0.0413979), wk =   0.0058594
        k(  257) = (   0.2500000   0.5773503   0.0551973), wk =   0.0058594
        k(  258) = (   0.2500000   0.5773503   0.0689966), wk =   0.0058594
        k(  259) = (   0.2500000   0.5773503   0.0827959), wk =   0.0058594
        k(  260) = (   0.2500000   0.5773503   0.0965952), wk =   0.0058594
        k(  261) = (   0.2500000   0.5773503  -0.1103945), wk =   0.0029297
        k(  262) = (   0.3125000   0.5412659   0.0000000), wk =   0.0029297
        k(  263) = (   0.3125000   0.5412659   0.0137993), wk =   0.0058594
        k(  264) = (   0.3125000   0.5412659   0.0275986), wk =   0.0058594
        k(  265) = (   0.3125000   0.5412659   0.0413979), wk =   0.0058594
        k(  266) = (   0.3125000   0.5412659   0.0551973), wk =   0.0058594
        k(  267) = (   0.3125000   0.5412659   0.0689966), wk =   0.0058594
        k(  268) = (   0.3125000   0.5412659   0.0827959), wk =   0.0058594
        k(  269) = (   0.3125000   0.5412659   0.0965952), wk =   0.0058594
        k(  270) = (   0.3125000   0.5412659  -0.1103945), wk =   0.0029297

                       cryst. coord.
        k(    1) = (   0.0000000   0.0000000   0.0000000), wk =   0.0004883
        k(    2) = (   0.0000000   0.0000000   0.0625000), wk =   0.0009766
        k(    3) = (   0.0000000   0.0000000   0.1250000), wk =   0.0009766
        k(    4) = (   0.0000000   0.0000000   0.1875000), wk =   0.0009766
        k(    5) = (   0.0000000   0.0000000   0.2500000), wk =   0.0009766
        k(    6) = (   0.0000000   0.0000000   0.3125000), wk =   0.0009766
        k(    7) = (   0.0000000   0.0000000   0.3750000), wk =   0.0009766
        k(    8) = (   0.0000000   0.0000000   0.4375000), wk =   0.0009766
        k(    9) = (   0.0000000   0.0000000  -0.5000000), wk =   0.0004883
        k(   10) = (   0.0000000   0.0625000   0.0000000), wk =   0.0029297
        k(   11) = (   0.0000000   0.0625000   0.0625000), wk =   0.0058594
        k(   12) = (   0.0000000   0.0625000   0.1250000), wk =   0.0058594
        k(   13) = (   0.0000000   0.0625000   0.1875000), wk =   0.0058594
        k(   14) = (   0.0000000   0.0625000   0.2500000), wk =   0.0058594
        k(   15) = (   0.0000000   0.0625000   0.3125000), wk =   0.0058594
        k(   16) = (   0.0000000   0.0625000   0.3750000), wk =   0.0058594
        k(   17) = (   0.0000000   0.0625000   0.4375000), wk =   0.0058594
        k(   18) = (   0.0000000   0.0625000  -0.5000000), wk =   0.0029297
        k(   19) = (   0.0000000   0.1250000   0.0000000), wk =   0.0029297
        k(   20) = (   0.0000000   0.1250000   0.0625000), wk =   0.0058594
        k(   21) = (   0.0000000   0.1250000   0.1250000), wk =   0.0058594
        k(   22) = (   0.0000000   0.1250000   0.1875000), wk =   0.0058594
        k(   23) = (   0.0000000   0.1250000   0.2500000), wk =   0.0058594
        k(   24) = (   0.0000000   0.1250000   0.3125000), wk =   0.0058594
        k(   25) = (   0.0000000   0.1250000   0.3750000), wk =   0.0058594
        k(   26) = (   0.0000000   0.1250000   0.4375000), wk =   0.0058594
        k(   27) = (   0.0000000   0.1250000  -0.5000000), wk =   0.0029297
        k(   28) = (   0.0000000   0.1875000   0.0000000), wk =   0.0029297
        k(   29) = (   0.0000000   0.1875000   0.0625000), wk =   0.0058594
        k(   30) = (   0.0000000   0.1875000   0.1250000), wk =   0.0058594
        k(   31) = (   0.0000000   0.1875000   0.1875000), wk =   0.0058594
        k(   32) = (   0.0000000   0.1875000   0.2500000), wk =   0.0058594
        k(   33) = (   0.0000000   0.1875000   0.3125000), wk =   0.0058594
        k(   34) = (   0.0000000   0.1875000   0.3750000), wk =   0.0058594
        k(   35) = (   0.0000000   0.1875000   0.4375000), wk =   0.0058594
        k(   36) = (   0.0000000   0.1875000  -0.5000000), wk =   0.0029297
        k(   37) = (   0.0000000   0.2500000   0.0000000), wk =   0.0029297
        k(   38) = (   0.0000000   0.2500000   0.0625000), wk =   0.0058594
        k(   39) = (   0.0000000   0.2500000   0.1250000), wk =   0.0058594
        k(   40) = (   0.0000000   0.2500000   0.1875000), wk =   0.0058594
        k(   41) = (   0.0000000   0.2500000   0.2500000), wk =   0.0058594
        k(   42) = (   0.0000000   0.2500000   0.3125000), wk =   0.0058594
        k(   43) = (   0.0000000   0.2500000   0.3750000), wk =   0.0058594
        k(   44) = (   0.0000000   0.2500000   0.4375000), wk =   0.0058594
        k(   45) = (   0.0000000   0.2500000  -0.5000000), wk =   0.0029297
        k(   46) = (   0.0000000   0.3125000   0.0000000), wk =   0.0029297
        k(   47) = (   0.0000000   0.3125000   0.0625000), wk =   0.0058594
        k(   48) = (   0.0000000   0.3125000   0.1250000), wk =   0.0058594
        k(   49) = (   0.0000000   0.3125000   0.1875000), wk =   0.0058594
        k(   50) = (   0.0000000   0.3125000   0.2500000), wk =   0.0058594
        k(   51) = (   0.0000000   0.3125000   0.3125000), wk =   0.0058594
        k(   52) = (   0.0000000   0.3125000   0.3750000), wk =   0.0058594
        k(   53) = (   0.0000000   0.3125000   0.4375000), wk =   0.0058594
        k(   54) = (   0.0000000   0.3125000  -0.5000000), wk =   0.0029297
        k(   55) = (   0.0000000   0.3750000   0.0000000), wk =   0.0029297
        k(   56) = (   0.0000000   0.3750000   0.0625000), wk =   0.0058594
        k(   57) = (   0.0000000   0.3750000   0.1250000), wk =   0.0058594
        k(   58) = (   0.0000000   0.3750000   0.1875000), wk =   0.0058594
        k(   59) = (   0.0000000   0.3750000   0.2500000), wk =   0.0058594
        k(   60) = (   0.0000000   0.3750000   0.3125000), wk =   0.0058594
        k(   61) = (   0.0000000   0.3750000   0.3750000), wk =   0.0058594
        k(   62) = (   0.0000000   0.3750000   0.4375000), wk =   0.0058594
        k(   63) = (   0.0000000   0.3750000  -0.5000000), wk =   0.0029297
        k(   64) = (   0.0000000   0.4375000   0.0000000), wk =   0.0029297
        k(   65) = (   0.0000000   0.4375000   0.0625000), wk =   0.0058594
        k(   66) = (   0.0000000   0.4375000   0.1250000), wk =   0.0058594
        k(   67) = (   0.0000000   0.4375000   0.1875000), wk =   0.0058594
        k(   68) = (   0.0000000   0.4375000   0.2500000), wk =   0.0058594
        k(   69) = (   0.0000000   0.4375000   0.3125000), wk =   0.0058594
        k(   70) = (   0.0000000   0.4375000   0.3750000), wk =   0.0058594
        k(   71) = (   0.0000000   0.4375000   0.4375000), wk =   0.0058594
        k(   72) = (   0.0000000   0.4375000  -0.5000000), wk =   0.0029297
        k(   73) = (   0.0000000  -0.5000000   0.0000000), wk =   0.0014648
        k(   74) = (   0.0000000  -0.5000000   0.0625000), wk =   0.0029297
        k(   75) = (   0.0000000  -0.5000000   0.1250000), wk =   0.0029297
        k(   76) = (   0.0000000  -0.5000000   0.1875000), wk =   0.0029297
        k(   77) = (   0.0000000  -0.5000000   0.2500000), wk =   0.0029297
        k(   78) = (   0.0000000  -0.5000000   0.3125000), wk =   0.0029297
        k(   79) = (   0.0000000  -0.5000000   0.3750000), wk =   0.0029297
        k(   80) = (   0.0000000  -0.5000000   0.4375000), wk =   0.0029297
        k(   81) = (   0.0000000  -0.5000000  -0.5000000), wk =   0.0014648
        k(   82) = (   0.0625000   0.0625000   0.0000000), wk =   0.0029297
        k(   83) = (   0.0625000   0.0625000   0.0625000), wk =   0.0058594
        k(   84) = (   0.0625000   0.0625000   0.1250000), wk =   0.0058594
        k(   85) = (   0.0625000   0.0625000   0.1875000), wk =   0.0058594
        k(   86) = (   0.0625000   0.0625000   0.2500000), wk =   0.0058594
        k(   87) = (   0.0625000   0.0625000   0.3125000), wk =   0.0058594
        k(   88) = (   0.0625000   0.0625000   0.3750000), wk =   0.0058594
        k(   89) = (   0.0625000   0.0625000   0.4375000), wk =   0.0058594
        k(   90) = (   0.0625000   0.0625000  -0.5000000), wk =   0.0029297
        k(   91) = (   0.0625000   0.1250000   0.0000000), wk =   0.0058594
        k(   92) = (   0.0625000   0.1250000   0.0625000), wk =   0.0117188
        k(   93) = (   0.0625000   0.1250000   0.1250000), wk =   0.0117188
        k(   94) = (   0.0625000   0.1250000   0.1875000), wk =   0.0117188
        k(   95) = (   0.0625000   0.1250000   0.2500000), wk =   0.0117188
        k(   96) = (   0.0625000   0.1250000   0.3125000), wk =   0.0117188
        k(   97) = (   0.0625000   0.1250000   0.3750000), wk =   0.0117188
        k(   98) = (   0.0625000   0.1250000   0.4375000), wk =   0.0117188
        k(   99) = (   0.0625000   0.1250000  -0.5000000), wk =   0.0058594
        k(  100) = (   0.0625000   0.1875000   0.0000000), wk =   0.0058594
        k(  101) = (   0.0625000   0.1875000   0.0625000), wk =   0.0117188
        k(  102) = (   0.0625000   0.1875000   0.1250000), wk =   0.0117188
        k(  103) = (   0.0625000   0.1875000   0.1875000), wk =   0.0117188
        k(  104) = (   0.0625000   0.1875000   0.2500000), wk =   0.0117188
        k(  105) = (   0.0625000   0.1875000   0.3125000), wk =   0.0117188
        k(  106) = (   0.0625000   0.1875000   0.3750000), wk =   0.0117188
        k(  107) = (   0.0625000   0.1875000   0.4375000), wk =   0.0117188
        k(  108) = (   0.0625000   0.1875000  -0.5000000), wk =   0.0058594
        k(  109) = (   0.0625000   0.2500000   0.0000000), wk =   0.0058594
        k(  110) = (   0.0625000   0.2500000   0.0625000), wk =   0.0117188
        k(  111) = (   0.0625000   0.2500000   0.1250000), wk =   0.0117188
        k(  112) = (   0.0625000   0.2500000   0.1875000), wk =   0.0117188
        k(  113) = (   0.0625000   0.2500000   0.2500000), wk =   0.0117188
        k(  114) = (   0.0625000   0.2500000   0.3125000), wk =   0.0117188
        k(  115) = (   0.0625000   0.2500000   0.3750000), wk =   0.0117188
        k(  116) = (   0.0625000   0.2500000   0.4375000), wk =   0.0117188
        k(  117) = (   0.0625000   0.2500000  -0.5000000), wk =   0.0058594
        k(  118) = (   0.0625000   0.3125000   0.0000000), wk =   0.0058594
        k(  119) = (   0.0625000   0.3125000   0.0625000), wk =   0.0117188
        k(  120) = (   0.0625000   0.3125000   0.1250000), wk =   0.0117188
        k(  121) = (   0.0625000   0.3125000   0.1875000), wk =   0.0117188
        k(  122) = (   0.0625000   0.3125000   0.2500000), wk =   0.0117188
        k(  123) = (   0.0625000   0.3125000   0.3125000), wk =   0.0117188
        k(  124) = (   0.0625000   0.3125000   0.3750000), wk =   0.0117188
        k(  125) = (   0.0625000   0.3125000   0.4375000), wk =   0.0117188
        k(  126) = (   0.0625000   0.3125000  -0.5000000), wk =   0.0058594
        k(  127) = (   0.0625000   0.3750000   0.0000000), wk =   0.0058594
        k(  128) = (   0.0625000   0.3750000   0.0625000), wk =   0.0117188
        k(  129) = (   0.0625000   0.3750000   0.1250000), wk =   0.0117188
        k(  130) = (   0.0625000   0.3750000   0.1875000), wk =   0.0117188
        k(  131) = (   0.0625000   0.3750000   0.2500000), wk =   0.0117188
        k(  132) = (   0.0625000   0.3750000   0.3125000), wk =   0.0117188
        k(  133) = (   0.0625000   0.3750000   0.3750000), wk =   0.0117188
        k(  134) = (   0.0625000   0.3750000   0.4375000), wk =   0.0117188
        k(  135) = (   0.0625000   0.3750000  -0.5000000), wk =   0.0058594
        k(  136) = (   0.0625000   0.4375000   0.0000000), wk =   0.0058594
        k(  137) = (   0.0625000   0.4375000   0.0625000), wk =   0.0117188
        k(  138) = (   0.0625000   0.4375000   0.1250000), wk =   0.0117188
        k(  139) = (   0.0625000   0.4375000   0.1875000), wk =   0.0117188
        k(  140) = (   0.0625000   0.4375000   0.2500000), wk =   0.0117188
        k(  141) = (   0.0625000   0.4375000   0.3125000), wk =   0.0117188
        k(  142) = (   0.0625000   0.4375000   0.3750000), wk =   0.0117188
        k(  143) = (   0.0625000   0.4375000   0.4375000), wk =   0.0117188
        k(  144) = (   0.0625000   0.4375000  -0.5000000), wk =   0.0058594
        k(  145) = (   0.1250000   0.1250000   0.0000000), wk =   0.0029297
        k(  146) = (   0.1250000   0.1250000   0.0625000), wk =   0.0058594
        k(  147) = (   0.1250000   0.1250000   0.1250000), wk =   0.0058594
        k(  148) = (   0.1250000   0.1250000   0.1875000), wk =   0.0058594
        k(  149) = (   0.1250000   0.1250000   0.2500000), wk =   0.0058594
        k(  150) = (   0.1250000   0.1250000   0.3125000), wk =   0.0058594
        k(  151) = (   0.1250000   0.1250000   0.3750000), wk =   0.0058594
        k(  152) = (   0.1250000   0.1250000   0.4375000), wk =   0.0058594
        k(  153) = (   0.1250000   0.1250000  -0.5000000), wk =   0.0029297
        k(  154) = (   0.1250000   0.1875000   0.0000000), wk =   0.0058594
        k(  155) = (   0.1250000   0.1875000   0.0625000), wk =   0.0117188
        k(  156) = (   0.1250000   0.1875000   0.1250000), wk =   0.0117188
        k(  157) = (   0.1250000   0.1875000   0.1875000), wk =   0.0117188
        k(  158) = (   0.1250000   0.1875000   0.2500000), wk =   0.0117188
        k(  159) = (   0.1250000   0.1875000   0.3125000), wk =   0.0117188
        k(  160) = (   0.1250000   0.1875000   0.3750000), wk =   0.0117188
        k(  161) = (   0.1250000   0.1875000   0.4375000), wk =   0.0117188
        k(  162) = (   0.1250000   0.1875000  -0.5000000), wk =   0.0058594
        k(  163) = (   0.1250000   0.2500000   0.0000000), wk =   0.0058594
        k(  164) = (   0.1250000   0.2500000   0.0625000), wk =   0.0117188
        k(  165) = (   0.1250000   0.2500000   0.1250000), wk =   0.0117188
        k(  166) = (   0.1250000   0.2500000   0.1875000), wk =   0.0117188
        k(  167) = (   0.1250000   0.2500000   0.2500000), wk =   0.0117188
        k(  168) = (   0.1250000   0.2500000   0.3125000), wk =   0.0117188
        k(  169) = (   0.1250000   0.2500000   0.3750000), wk =   0.0117188
        k(  170) = (   0.1250000   0.2500000   0.4375000), wk =   0.0117188
        k(  171) = (   0.1250000   0.2500000  -0.5000000), wk =   0.0058594
        k(  172) = (   0.1250000   0.3125000   0.0000000), wk =   0.0058594
        k(  173) = (   0.1250000   0.3125000   0.0625000), wk =   0.0117188
        k(  174) = (   0.1250000   0.3125000   0.1250000), wk =   0.0117188
        k(  175) = (   0.1250000   0.3125000   0.1875000), wk =   0.0117188
        k(  176) = (   0.1250000   0.3125000   0.2500000), wk =   0.0117188
        k(  177) = (   0.1250000   0.3125000   0.3125000), wk =   0.0117188
        k(  178) = (   0.1250000   0.3125000   0.3750000), wk =   0.0117188
        k(  179) = (   0.1250000   0.3125000   0.4375000), wk =   0.0117188
        k(  180) = (   0.1250000   0.3125000  -0.5000000), wk =   0.0058594
        k(  181) = (   0.1250000   0.3750000   0.0000000), wk =   0.0058594
        k(  182) = (   0.1250000   0.3750000   0.0625000), wk =   0.0117188
        k(  183) = (   0.1250000   0.3750000   0.1250000), wk =   0.0117188
        k(  184) = (   0.1250000   0.3750000   0.1875000), wk =   0.0117188
        k(  185) = (   0.1250000   0.3750000   0.2500000), wk =   0.0117188
        k(  186) = (   0.1250000   0.3750000   0.3125000), wk =   0.0117188
        k(  187) = (   0.1250000   0.3750000   0.3750000), wk =   0.0117188
        k(  188) = (   0.1250000   0.3750000   0.4375000), wk =   0.0117188
        k(  189) = (   0.1250000   0.3750000  -0.5000000), wk =   0.0058594
        k(  190) = (   0.1250000   0.4375000   0.0000000), wk =   0.0029297
        k(  191) = (   0.1250000   0.4375000   0.0625000), wk =   0.0058594
        k(  192) = (   0.1250000   0.4375000   0.1250000), wk =   0.0058594
        k(  193) = (   0.1250000   0.4375000   0.1875000), wk =   0.0058594
        k(  194) = (   0.1250000   0.4375000   0.2500000), wk =   0.0058594
        k(  195) = (   0.1250000   0.4375000   0.3125000), wk =   0.0058594
        k(  196) = (   0.1250000   0.4375000   0.3750000), wk =   0.0058594
        k(  197) = (   0.1250000   0.4375000   0.4375000), wk =   0.0058594
        k(  198) = (   0.1250000   0.4375000  -0.5000000), wk =   0.0029297
        k(  199) = (   0.1875000   0.1875000   0.0000000), wk =   0.0029297
        k(  200) = (   0.1875000   0.1875000   0.0625000), wk =   0.0058594
        k(  201) = (   0.1875000   0.1875000   0.1250000), wk =   0.0058594
        k(  202) = (   0.1875000   0.1875000   0.1875000), wk =   0.0058594
        k(  203) = (   0.1875000   0.1875000   0.2500000), wk =   0.0058594
        k(  204) = (   0.1875000   0.1875000   0.3125000), wk =   0.0058594
        k(  205) = (   0.1875000   0.1875000   0.3750000), wk =   0.0058594
        k(  206) = (   0.1875000   0.1875000   0.4375000), wk =   0.0058594
        k(  207) = (   0.1875000   0.1875000  -0.5000000), wk =   0.0029297
        k(  208) = (   0.1875000   0.2500000   0.0000000), wk =   0.0058594
        k(  209) = (   0.1875000   0.2500000   0.0625000), wk =   0.0117188
        k(  210) = (   0.1875000   0.2500000   0.1250000), wk =   0.0117188
        k(  211) = (   0.1875000   0.2500000   0.1875000), wk =   0.0117188
        k(  212) = (   0.1875000   0.2500000   0.2500000), wk =   0.0117188
        k(  213) = (   0.1875000   0.2500000   0.3125000), wk =   0.0117188
        k(  214) = (   0.1875000   0.2500000   0.3750000), wk =   0.0117188
        k(  215) = (   0.1875000   0.2500000   0.4375000), wk =   0.0117188
        k(  216) = (   0.1875000   0.2500000  -0.5000000), wk =   0.0058594
        k(  217) = (   0.1875000   0.3125000   0.0000000), wk =   0.0058594
        k(  218) = (   0.1875000   0.3125000   0.0625000), wk =   0.0117188
        k(  219) = (   0.1875000   0.3125000   0.1250000), wk =   0.0117188
        k(  220) = (   0.1875000   0.3125000   0.1875000), wk =   0.0117188
        k(  221) = (   0.1875000   0.3125000   0.2500000), wk =   0.0117188
        k(  222) = (   0.1875000   0.3125000   0.3125000), wk =   0.0117188
        k(  223) = (   0.1875000   0.3125000   0.3750000), wk =   0.0117188
        k(  224) = (   0.1875000   0.3125000   0.4375000), wk =   0.0117188
        k(  225) = (   0.1875000   0.3125000  -0.5000000), wk =   0.0058594
        k(  226) = (   0.1875000   0.3750000   0.0000000), wk =   0.0058594
        k(  227) = (   0.1875000   0.3750000   0.0625000), wk =   0.0117188
        k(  228) = (   0.1875000   0.3750000   0.1250000), wk =   0.0117188
        k(  229) = (   0.1875000   0.3750000   0.1875000), wk =   0.0117188
        k(  230) = (   0.1875000   0.3750000   0.2500000), wk =   0.0117188
        k(  231) = (   0.1875000   0.3750000   0.3125000), wk =   0.0117188
        k(  232) = (   0.1875000   0.3750000   0.3750000), wk =   0.0117188
        k(  233) = (   0.1875000   0.3750000   0.4375000), wk =   0.0117188
        k(  234) = (   0.1875000   0.3750000  -0.5000000), wk =   0.0058594
        k(  235) = (   0.2500000   0.2500000   0.0000000), wk =   0.0029297
        k(  236) = (   0.2500000   0.2500000   0.0625000), wk =   0.0058594
        k(  237) = (   0.2500000   0.2500000   0.1250000), wk =   0.0058594
        k(  238) = (   0.2500000   0.2500000   0.1875000), wk =   0.0058594
        k(  239) = (   0.2500000   0.2500000   0.2500000), wk =   0.0058594
        k(  240) = (   0.2500000   0.2500000   0.3125000), wk =   0.0058594
        k(  241) = (   0.2500000   0.2500000   0.3750000), wk =   0.0058594
        k(  242) = (   0.2500000   0.2500000   0.4375000), wk =   0.0058594
        k(  243) = (   0.2500000   0.2500000  -0.5000000), wk =   0.0029297
        k(  244) = (   0.2500000   0.3125000   0.0000000), wk =   0.0058594
        k(  245) = (   0.2500000   0.3125000   0.0625000), wk =   0.0117188
        k(  246) = (   0.2500000   0.3125000   0.1250000), wk =   0.0117188
        k(  247) = (   0.2500000   0.3125000   0.1875000), wk =   0.0117188
        k(  248) = (   0.2500000   0.3125000   0.2500000), wk =   0.0117188
        k(  249) = (   0.2500000   0.3125000   0.3125000), wk =   0.0117188
        k(  250) = (   0.2500000   0.3125000   0.3750000), wk =   0.0117188
        k(  251) = (   0.2500000   0.3125000   0.4375000), wk =   0.0117188
        k(  252) = (   0.2500000   0.3125000  -0.5000000), wk =   0.0058594
        k(  253) = (   0.2500000   0.3750000   0.0000000), wk =   0.0029297
        k(  254) = (   0.2500000   0.3750000   0.0625000), wk =   0.0058594
        k(  255) = (   0.2500000   0.3750000   0.1250000), wk =   0.0058594
        k(  256) = (   0.2500000   0.3750000   0.1875000), wk =   0.0058594
        k(  257) = (   0.2500000   0.3750000   0.2500000), wk =   0.0058594
        k(  258) = (   0.2500000   0.3750000   0.3125000), wk =   0.0058594
        k(  259) = (   0.2500000   0.3750000   0.3750000), wk =   0.0058594
        k(  260) = (   0.2500000   0.3750000   0.4375000), wk =   0.0058594
        k(  261) = (   0.2500000   0.3750000  -0.5000000), wk =   0.0029297
        k(  262) = (   0.3125000   0.3125000   0.0000000), wk =   0.0029297
        k(  263) = (   0.3125000   0.3125000   0.0625000), wk =   0.0058594
        k(  264) = (   0.3125000   0.3125000   0.1250000), wk =   0.0058594
        k(  265) = (   0.3125000   0.3125000   0.1875000), wk =   0.0058594
        k(  266) = (   0.3125000   0.3125000   0.2500000), wk =   0.0058594
        k(  267) = (   0.3125000   0.3125000   0.3125000), wk =   0.0058594
        k(  268) = (   0.3125000   0.3125000   0.3750000), wk =   0.0058594
        k(  269) = (   0.3125000   0.3125000   0.4375000), wk =   0.0058594
        k(  270) = (   0.3125000   0.3125000  -0.5000000), wk =   0.0029297

     Dense  grid:   170417 G-vectors     FFT dimensions: (  45,  45, 200)

     Smooth grid:    53709 G-vectors     FFT dimensions: (  30,  30, 144)

     Dynamical RAM for                 wfc:       1.18 MB

     Dynamical RAM for     wfc (w. buffer):     319.18 MB

     Dynamical RAM for           str. fact:       1.30 MB

     Dynamical RAM for           local pot:       0.00 MB

     Dynamical RAM for          nlocal pot:       2.77 MB

     Dynamical RAM for                qrad:       3.50 MB

     Dynamical RAM for          rho,v,vnew:       4.27 MB

     Dynamical RAM for               rhoin:       1.42 MB

     Dynamical RAM for            rho*nmix:      10.40 MB

     Dynamical RAM for           G-vectors:       2.54 MB

     Dynamical RAM for          h,s,v(r/c):       0.10 MB

     Dynamical RAM for          <psi|beta>:       0.08 MB

     Dynamical RAM for                 psi:       2.36 MB

     Dynamical RAM for                hpsi:       2.36 MB

     Dynamical RAM for                spsi:       2.36 MB

     Dynamical RAM for      wfcinit/wfcrot:       2.40 MB

     Dynamical RAM for           addusdens:     123.50 MB

     Dynamical RAM for          addusforce:     127.74 MB

     Estimated static dynamical RAM per process >     351.19 MB

     Estimated max dynamical RAM per process >     478.92 MB

     Estimated total dynamical RAM >       1.87 GB

     Atomic positions and unit cell read from directory:
     ./tmp/WSe2.save/


     The initial density is read from file :
     ./tmp/WSe2.save/charge-density


     negative rho (up, down):  5.311E-04 0.000E+00
     Starting wfcs from file
     Checking if some PAW data can be deallocated... 
       PAW data deallocated on    3 nodes for type:  1
       PAW data deallocated on    1 nodes for type:  2

     total cpu time spent up to now is        9.2 secs

     Self-consistent Calculation

     iteration #  1     ecut=    55.00 Ry     beta= 0.50
     Davidson diagonalization with overlap
     ethr =  1.00E-05,  avg # of iterations =  2.0

     Threshold (ethr) on eigenvalues was too large:
     Diagonalizing with lowered threshold

     Davidson diagonalization with overlap
     ethr =  9.71E-07,  avg # of iterations =  3.0

     negative rho (up, down):  5.681E-04 0.000E+00

     total cpu time spent up to now is      403.4 secs

     total energy              =   -3096.20882816 Ry
     estimated scf accuracy    <       0.00138590 Ry

     iteration #  2     ecut=    55.00 Ry     beta= 0.50
     Davidson diagonalization with overlap
     ethr =  1.51E-06,  avg # of iterations =  5.7

     negative rho (up, down):  5.400E-04 0.000E+00

     total cpu time spent up to now is      736.3 secs

     total energy              =   -3096.20883137 Ry
     estimated scf accuracy    <       0.00327423 Ry

     iteration #  3     ecut=    55.00 Ry     beta= 0.50
     Davidson diagonalization with overlap
     ethr =  1.51E-06,  avg # of iterations =  5.0

     negative rho (up, down):  5.646E-04 0.000E+00

     total cpu time spent up to now is      968.8 secs

     total energy              =   -3096.20936975 Ry
     estimated scf accuracy    <       0.00005300 Ry

     iteration #  4     ecut=    55.00 Ry     beta= 0.50
     Davidson diagonalization with overlap
     ethr =  5.76E-08,  avg # of iterations =  4.1

     negative rho (up, down):  5.571E-04 0.000E+00

     total cpu time spent up to now is     1152.6 secs

     total energy              =   -3096.20937136 Ry
     estimated scf accuracy    <       0.00002630 Ry

     iteration #  5     ecut=    55.00 Ry     beta= 0.50
     Davidson diagonalization with overlap
     ethr =  2.86E-08,  avg # of iterations =  4.9

     negative rho (up, down):  5.529E-04 0.000E+00

     total cpu time spent up to now is     1343.5 secs

     total energy              =   -3096.20937850 Ry
     estimated scf accuracy    <       0.00000682 Ry

     iteration #  6     ecut=    55.00 Ry     beta= 0.50
     Davidson diagonalization with overlap
     ethr =  7.42E-09,  avg # of iterations =  2.5

     negative rho (up, down):  5.527E-04 0.000E+00

     total cpu time spent up to now is     1484.1 secs

     total energy              =   -3096.20937801 Ry
     estimated scf accuracy    <       0.00000270 Ry

     iteration #  7     ecut=    55.00 Ry     beta= 0.50
     Davidson diagonalization with overlap
     ethr =  2.93E-09,  avg # of iterations =  4.8

     negative rho (up, down):  5.529E-04 0.000E+00

     total cpu time spent up to now is     1654.1 secs

     total energy              =   -3096.20937862 Ry
     estimated scf accuracy    <       0.00000013 Ry

     iteration #  8     ecut=    55.00 Ry     beta= 0.50
     Davidson diagonalization with overlap
     ethr =  1.37E-10,  avg # of iterations =  4.8

     negative rho (up, down):  5.525E-04 0.000E+00

     total cpu time spent up to now is     1869.2 secs

     total energy              =   -3096.20937865 Ry
     estimated scf accuracy    <          6.5E-09 Ry

     iteration #  9     ecut=    55.00 Ry     beta= 0.50
     Davidson diagonalization with overlap
     ethr =  7.02E-12,  avg # of iterations =  5.3

     negative rho (up, down):  5.520E-04 0.000E+00

     total cpu time spent up to now is     2094.1 secs

     total energy              =   -3096.20937865 Ry
     estimated scf accuracy    <       0.00000003 Ry

     iteration # 10     ecut=    55.00 Ry     beta= 0.50
     Davidson diagonalization with overlap
     ethr =  7.02E-12,  avg # of iterations =  4.5

     negative rho (up, down):  5.519E-04 0.000E+00

     total cpu time spent up to now is     2301.0 secs

     total energy              =   -3096.20937865 Ry
     estimated scf accuracy    <          3.8E-09 Ry

     iteration # 11     ecut=    55.00 Ry     beta= 0.50
     Davidson diagonalization with overlap
     ethr =  4.12E-12,  avg # of iterations =  3.8

     negative rho (up, down):  5.518E-04 0.000E+00

     total cpu time spent up to now is     2470.6 secs

     End of self-consistent calculation

          k = 0.0000 0.0000 0.0000 (  6733 PWs)   bands (ev):

   -64.7063 -64.7061 -38.1422 -38.1422 -38.1384 -38.1384 -38.1356 -38.1356
   -38.1321 -38.1321 -38.1097 -38.1097 -38.1060 -38.1060 -38.1031 -38.1031
   -38.0997 -38.0997 -38.0958 -38.0923 -38.0889 -38.0856 -28.9163 -28.9161
   -28.8103 -28.8103 -28.8101 -28.8101  -5.3395  -5.3102  -4.1073  -4.0541
     3.1139   3.3700   6.8224   7.0050   7.0051   7.0065   7.0065   7.6968
     8.1049   8.1050   8.1098   8.1099   8.8337   9.3259

     occupation numbers 
     1.0000   1.0000   1.0000   1.0000   1.0000   1.0000   1.0000   1.0000
     1.0000   1.0000   1.0000   1.0000   1.0000   1.0000   1.0000   1.0000
     1.0000   1.0000   1.0000   1.0000   1.0000   1.0000   1.0000   1.0000
     1.0000   1.0000   1.0000   1.0000   1.0000   1.0000   1.0000   1.0000
     1.0000   1.0000   1.0000   1.0000   1.0000   1.0000   1.0000   1.0000
     1.0000   1.0000   1.0000   1.0000   1.0000   1.0000

          k = 0.0000 0.0000 0.0138 (  6733 PWs)   bands (ev):

   -64.7063 -64.7061 -38.1422 -38.1422 -38.1384 -38.1384 -38.1356 -38.1356
   -38.1321 -38.1321 -38.1097 -38.1097 -38.1060 -38.1060 -38.1031 -38.1031
   -38.0997 -38.0997 -38.0958 -38.0923 -38.0889 -38.0856 -28.9164 -28.9162
   -28.8103 -28.8103 -28.8101 -28.8101  -5.3392  -5.3105  -4.1068  -4.0546
     3.1162   3.3673   6.8293   7.0050   7.0051   7.0065   7.0065   7.6848
     8.1050   8.1051   8.1097   8.1099   8.8422   9.3229

     occupation numbers 
     1.0000   1.0000   1.0000   1.0000   1.0000   1.0000   1.0000   1.0000
     1.0000   1.0000   1.0000   1.0000   1.0000   1.0000   1.0000   1.0000
     1.0000   1.0000   1.0000   1.0000   1.0000   1.0000   1.0000   1.0000
     1.0000   1.0000   1.0000   1.0000   1.0000   1.0000   1.0000   1.0000
     1.0000   1.0000   1.0000   1.0000   1.0000   1.0000   1.0000   1.0000
     1.0000   1.0000   1.0000   1.0000   1.0000   1.0000

          k = 0.0000 0.0000 0.0276 (  6727 PWs)   bands (ev):

   -64.7063 -64.7061 -38.1422 -38.1422 -38.1384 -38.1384 -38.1356 -38.1356
   -38.1321 -38.1321 -38.1097 -38.1097 -38.1060 -38.1060 -38.1031 -38.1031
   -38.0997 -38.0997 -38.0958 -38.0923 -38.0889 -38.0856 -28.9163 -28.9161
   -28.8103 -28.8103 -28.8101 -28.8101  -5.3384  -5.3114  -4.1053  -4.0561
     3.1228   3.3592   6.8498   7.0051   7.0051   7.0065   7.0065   7.6504
     8.1051   8.1052   8.1096   8.1097   8.8665   9.3141

     occupation numbers 
     1.0000   1.0000   1.0000   1.0000   1.0000   1.0000   1.0000   1.0000
     1.0000   1.0000   1.0000   1.0000   1.0000   1.0000   1.0000   1.0000
     1.0000   1.0000   1.0000   1.0000   1.0000   1.0000   1.0000   1.0000
     1.0000   1.0000   1.0000   1.0000   1.0000   1.0000   1.0000   1.0000
     1.0000   1.0000   1.0000   1.0000   1.0000   1.0000   1.0000   1.0000
     1.0000   1.0000   1.0000   1.0000   1.0000   1.0000

          k = 0.0000 0.0000 0.0414 (  6751 PWs)   bands (ev):

   -64.7063 -64.7061 -38.1422 -38.1422 -38.1384 -38.1384 -38.1356 -38.1356
   -38.1321 -38.1321 -38.1097 -38.1097 -38.1060 -38.1060 -38.1031 -38.1031
   -38.0997 -38.0997 -38.0958 -38.0923 -38.0889 -38.0856 -28.9164 -28.9162
   -28.8104 -28.8103 -28.8101 -28.8101  -5.3371  -5.3127  -4.1028  -4.0585
     3.1336   3.3462   6.8834   7.0052   7.0052   7.0064   7.0064   7.5972
     8.1053   8.1054   8.1094   8.1095   8.9031   9.2994

     occupation numbers 
     1.0000   1.0000   1.0000   1.0000   1.0000   1.0000   1.0000   1.0000
     1.0000   1.0000   1.0000   1.0000   1.0000   1.0000   1.0000   1.0000
     1.0000   1.0000   1.0000   1.0000   1.0000   1.0000   1.0000   1.0000
     1.0000   1.0000   1.0000   1.0000   1.0000   1.0000   1.0000   1.0000
     1.0000   1.0000   1.0000   1.0000   1.0000   1.0000   1.0000   1.0000
     1.0000   1.0000   1.0000   1.0000   1.0000   1.0000

          k = 0.0000 0.0000 0.0552 (  6763 PWs)   bands (ev):

   -64.7063 -64.7061 -38.1422 -38.1422 -38.1384 -38.1384 -38.1356 -38.1356
   -38.1321 -38.1321 -38.1097 -38.1097 -38.1060 -38.1060 -38.1031 -38.1031
   -38.0997 -38.0997 -38.0958 -38.0923 -38.0889 -38.0856 -28.9164 -28.9162
   -28.8104 -28.8103 -28.8102 -28.8101  -5.3353  -5.3146  -4.0994  -4.0618
     3.1483   3.3289   6.9291   7.0052   7.0053   7.0063   7.0063   7.5300
     8.1056   8.1057   8.1091   8.1092   8.9479   9.2789

     occupation numbers 
     1.0000   1.0000   1.0000   1.0000   1.0000   1.0000   1.0000   1.0000
     1.0000   1.0000   1.0000   1.0000   1.0000   1.0000   1.0000   1.0000
     1.0000   1.0000   1.0000   1.0000   1.0000   1.0000   1.0000   1.0000
     1.0000   1.0000   1.0000   1.0000   1.0000   1.0000   1.0000   1.0000
     1.0000   1.0000   1.0000   1.0000   1.0000   1.0000   1.0000   1.0000
     1.0000   1.0000   1.0000   1.0000   1.0000   1.0000

          k = 0.0000 0.0000 0.0690 (  6769 PWs)   bands (ev):

   -64.7063 -64.7061 -38.1422 -38.1422 -38.1384 -38.1384 -38.1356 -38.1356
   -38.1321 -38.1321 -38.1097 -38.1097 -38.1060 -38.1060 -38.1031 -38.1031
   -38.0997 -38.0997 -38.0958 -38.0923 -38.0889 -38.0856 -28.9164 -28.9162
   -28.8104 -28.8104 -28.8102 -28.8102  -5.3331  -5.3169  -4.0953  -4.0658
     3.1664   3.3082   6.9857   7.0054   7.0054   7.0062   7.0062   7.4534
     8.1060   8.1061   8.1087   8.1088   8.9969   9.2527

     occupation numbers 
     1.0000   1.0000   1.0000   1.0000   1.0000   1.0000   1.0000   1.0000
     1.0000   1.0000   1.0000   1.0000   1.0000   1.0000   1.0000   1.0000
     1.0000   1.0000   1.0000   1.0000   1.0000   1.0000   1.0000   1.0000
     1.0000   1.0000   1.0000   1.0000   1.0000   1.0000   1.0000   1.0000
     1.0000   1.0000   1.0000   1.0000   1.0000   1.0000   1.0000   1.0000
     1.0000   1.0000   1.0000   1.0000   1.0000   1.0000

          k = 0.0000 0.0000 0.0828 (  6775 PWs)   bands (ev):

   -64.7063 -64.7061 -38.1422 -38.1422 -38.1384 -38.1384 -38.1356 -38.1356
   -38.1321 -38.1321 -38.1097 -38.1097 -38.1060 -38.1060 -38.1031 -38.1031
   -38.0997 -38.0997 -38.0958 -38.0923 -38.0889 -38.0856 -28.9164 -28.9162
   -28.8104 -28.8104 -28.8102 -28.8102  -5.3307  -5.3195  -4.0907  -4.0703
     3.1875   3.2850   7.0055   7.0055   7.0061   7.0061   7.0517   7.3715
     8.1064   8.1065   8.1083   8.1084   9.0470   9.2209

     occupation numbers 
     1.0000   1.0000   1.0000   1.0000   1.0000   1.0000   1.0000   1.0000
     1.0000   1.0000   1.0000   1.0000   1.0000   1.0000   1.0000   1.0000
     1.0000   1.0000   1.0000   1.0000   1.0000   1.0000   1.0000   1.0000
     1.0000   1.0000   1.0000   1.0000   1.0000   1.0000   1.0000   1.0000
     1.0000   1.0000   1.0000   1.0000   1.0000   1.0000   1.0000   1.0000
     1.0000   1.0000   1.0000   1.0000   1.0000   1.0000

          k = 0.0000 0.0000 0.0966 (  6788 PWs)   bands (ev):

   -64.7063 -64.7061 -38.1422 -38.1422 -38.1384 -38.1384 -38.1356 -38.1356
   -38.1321 -38.1321 -38.1097 -38.1097 -38.1060 -38.1060 -38.1031 -38.1031
   -38.0997 -38.0997 -38.0958 -38.0923 -38.0889 -38.0856 -28.9164 -28.9162
   -28.8104 -28.8104 -28.8102 -28.8102  -5.3279  -5.3222  -4.0857  -4.0753
     3.2107   3.2604   7.0056   7.0056   7.0059   7.0059   7.1254   7.2876
     8.1069   8.1070   8.1078   8.1079   9.0959   9.1837

     occupation numbers 
     1.0000   1.0000   1.0000   1.0000   1.0000   1.0000   1.0000   1.0000
     1.0000   1.0000   1.0000   1.0000   1.0000   1.0000   1.0000   1.0000
     1.0000   1.0000   1.0000   1.0000   1.0000   1.0000   1.0000   1.0000
     1.0000   1.0000   1.0000   1.0000   1.0000   1.0000   1.0000   1.0000
     1.0000   1.0000   1.0000   1.0000   1.0000   1.0000   1.0000   1.0000
     1.0000   1.0000   1.0000   1.0000   1.0000   1.0000

          k = 0.0000 0.0000-0.1104 (  6788 PWs)   bands (ev):

   -64.7063 -64.7061 -38.1422 -38.1422 -38.1384 -38.1384 -38.1356 -38.1356
   -38.1321 -38.1321 -38.1097 -38.1097 -38.1060 -38.1060 -38.1031 -38.1031
   -38.0997 -38.0997 -38.0958 -38.0923 -38.0889 -38.0856 -28.9164 -28.9162
   -28.8104 -28.8104 -28.8102 -28.8102  -5.3252  -5.3250  -4.0805  -4.0804
     3.2350   3.2356   7.0057   7.0058   7.0058   7.0058   7.2040   7.2054
     8.1073   8.1074   8.1075   8.1075   9.1412   9.1425

     occupation numbers 
     1.0000   1.0000   1.0000   1.0000   1.0000   1.0000   1.0000   1.0000
     1.0000   1.0000   1.0000   1.0000   1.0000   1.0000   1.0000   1.0000
     1.0000   1.0000   1.0000   1.0000   1.0000   1.0000   1.0000   1.0000
     1.0000   1.0000   1.0000   1.0000   1.0000   1.0000   1.0000   1.0000
     1.0000   1.0000   1.0000   1.0000   1.0000   1.0000   1.0000   1.0000
     1.0000   1.0000   1.0000   1.0000   1.0000   1.0000

          k = 0.0000 0.0722 0.0000 (  6739 PWs)   bands (ev):

   -64.7060 -64.7057 -38.1422 -38.1421 -38.1384 -38.1383 -38.1356 -38.1355
   -38.1321 -38.1320 -38.1098 -38.1097 -38.1061 -38.1061 -38.1031 -38.1031
   -38.0997 -38.0997 -38.0957 -38.0922 -38.0888 -38.0856 -28.9147 -28.9145
   -28.8183 -28.8181 -28.8122 -28.8120  -5.2828  -5.2536  -4.0787  -4.0263
     3.1874   3.4435   6.7311   6.8246   6.8268   7.0596   7.0616   7.4246
     8.0055   8.0109   8.1047   8.2604   8.8341   9.2808

     occupation numbers 
     1.0000   1.0000   1.0000   1.0000   1.0000   1.0000   1.0000   1.0000
     1.0000   1.0000   1.0000   1.0000   1.0000   1.0000   1.0000   1.0000
     1.0000   1.0000   1.0000   1.0000   1.0000   1.0000   1.0000   1.0000
     1.0000   1.0000   1.0000   1.0000   1.0000   1.0000   1.0000   1.0000
     1.0000   1.0000   1.0000   1.0000   1.0000   1.0000   1.0000   1.0000
     1.0000   1.0000   1.0000   1.0000   1.0000   1.0000

          k = 0.0000 0.0722 0.0138 (  6747 PWs)   bands (ev):

   -64.7060 -64.7058 -38.1422 -38.1421 -38.1384 -38.1383 -38.1356 -38.1355
   -38.1321 -38.1320 -38.1098 -38.1097 -38.1061 -38.1061 -38.1031 -38.1031
   -38.0997 -38.0997 -38.0957 -38.0922 -38.0888 -38.0856 -28.9148 -28.9146
   -28.8183 -28.8181 -28.8122 -28.8120  -5.2826  -5.2539  -4.0781  -4.0268
     3.1897   3.4408   6.7373   6.8246   6.8268   7.0597   7.0616   7.4175
     8.0056   8.0109   8.1051   8.2554   8.8426   9.2782

     occupation numbers 
     1.0000   1.0000   1.0000   1.0000   1.0000   1.0000   1.0000   1.0000
     1.0000   1.0000   1.0000   1.0000   1.0000   1.0000   1.0000   1.0000
     1.0000   1.0000   1.0000   1.0000   1.0000   1.0000   1.0000   1.0000
     1.0000   1.0000   1.0000   1.0000   1.0000   1.0000   1.0000   1.0000
     1.0000   1.0000   1.0000   1.0000   1.0000   1.0000   1.0000   1.0000
     1.0000   1.0000   1.0000   1.0000   1.0000   1.0000

          k = 0.0000 0.0722 0.0276 (  6760 PWs)   bands (ev):

   -64.7060 -64.7058 -38.1422 -38.1421 -38.1384 -38.1383 -38.1356 -38.1355
   -38.1321 -38.1320 -38.1098 -38.1097 -38.1061 -38.1061 -38.1031 -38.1031
   -38.0997 -38.0997 -38.0957 -38.0922 -38.0888 -38.0856 -28.9148 -28.9146
   -28.8183 -28.8181 -28.8122 -28.8120  -5.2818  -5.2548  -4.0766  -4.0282
     3.1963   3.4327   6.7559   6.8247   6.8267   7.0597   7.0615   7.3966
     8.0057   8.0107   8.1064   8.2418   8.8663   9.2706

     occupation numbers 
     1.0000   1.0000   1.0000   1.0000   1.0000   1.0000   1.0000   1.0000
     1.0000   1.0000   1.0000   1.0000   1.0000   1.0000   1.0000   1.0000
     1.0000   1.0000   1.0000   1.0000   1.0000   1.0000   1.0000   1.0000
     1.0000   1.0000   1.0000   1.0000   1.0000   1.0000   1.0000   1.0000
     1.0000   1.0000   1.0000   1.0000   1.0000   1.0000   1.0000   1.0000
     1.0000   1.0000   1.0000   1.0000   1.0000   1.0000

          k = 0.0000 0.0722 0.0414 (  6748 PWs)   bands (ev):

   -64.7060 -64.7058 -38.1422 -38.1421 -38.1384 -38.1383 -38.1356 -38.1355
   -38.1321 -38.1320 -38.1098 -38.1097 -38.1061 -38.1061 -38.1031 -38.1031
   -38.0997 -38.0997 -38.0957 -38.0922 -38.0888 -38.0856 -28.9148 -28.9146
   -28.8183 -28.8181 -28.8122 -28.8120  -5.2805  -5.2562  -4.0742  -4.0306
     3.2071   3.4197   6.7862   6.8249   6.8266   7.0598   7.0614   7.3627
     8.0060   8.0105   8.1086   8.2231   8.9014   9.2578

     occupation numbers 
     1.0000   1.0000   1.0000   1.0000   1.0000   1.0000   1.0000   1.0000
     1.0000   1.0000   1.0000   1.0000   1.0000   1.0000   1.0000   1.0000
     1.0000   1.0000   1.0000   1.0000   1.0000   1.0000   1.0000   1.0000
     1.0000   1.0000   1.0000   1.0000   1.0000   1.0000   1.0000   1.0000
     1.0000   1.0000   1.0000   1.0000   1.0000   1.0000   1.0000   1.0000
     1.0000   1.0000   1.0000   1.0000   1.0000   1.0000

          k = 0.0000 0.0722 0.0552 (  6752 PWs)   bands (ev):

[...]
     3.8143   3.8185   4.0540   4.0581   5.2470   5.2544   5.7657   5.7686
     6.0807   6.0923   7.1755   7.1843   9.1606   9.1703

     occupation numbers 
     1.0000   1.0000   1.0000   1.0000   1.0000   1.0000   1.0000   1.0000
     1.0000   1.0000   1.0000   1.0000   1.0000   1.0000   1.0000   1.0000
     1.0000   1.0000   1.0000   1.0000   1.0000   1.0000   1.0000   1.0000
     1.0000   1.0000   1.0000   1.0000   1.0000   1.0000   1.0000   1.0000
     1.0000   1.0000   1.0000   1.0000   1.0000   1.0000   1.0000   1.0000
     1.0000   1.0000   1.0000   1.0000   1.0000   1.0000

          k = 0.2500 0.5774-0.1104 (  6680 PWs)   bands (ev):

   -64.6815 -64.6813 -38.1504 -38.1489 -38.1465 -38.1450 -38.1437 -38.1423
   -38.1401 -38.1387 -38.1186 -38.1179 -38.1149 -38.1142 -38.1117 -38.1113
   -38.1083 -38.1078 -38.1002 -38.0968 -38.0929 -38.0898 -28.9826 -28.9824
   -28.9214 -28.9212 -28.8605 -28.8603  -3.2727  -3.2725  -3.0833  -3.0832
     3.8163   3.8165   4.0560   4.0561   5.2504   5.2509   5.7667   5.7670
     6.0869   6.0870   7.1797   7.1797   9.1654   9.1655

     occupation numbers 
     1.0000   1.0000   1.0000   1.0000   1.0000   1.0000   1.0000   1.0000
     1.0000   1.0000   1.0000   1.0000   1.0000   1.0000   1.0000   1.0000
     1.0000   1.0000   1.0000   1.0000   1.0000   1.0000   1.0000   1.0000
     1.0000   1.0000   1.0000   1.0000   1.0000   1.0000   1.0000   1.0000
     1.0000   1.0000   1.0000   1.0000   1.0000   1.0000   1.0000   1.0000
     1.0000   1.0000   1.0000   1.0000   1.0000   1.0000

          k = 0.3125 0.5413 0.0000 (  6690 PWs)   bands (ev):

   -64.6814 -64.6811 -38.1500 -38.1491 -38.1462 -38.1453 -38.1433 -38.1426
   -38.1398 -38.1390 -38.1186 -38.1180 -38.1149 -38.1142 -38.1117 -38.1113
   -38.1083 -38.1078 -38.1002 -38.0968 -38.0929 -38.0897 -28.9720 -28.9718
   -28.9358 -28.9356 -28.8599 -28.8597  -3.2401  -3.2369  -3.0661  -3.0627
     3.9954   4.0196   4.0245   4.0280   5.0761   5.1001   5.5903   5.6233
     6.0682   6.1116   7.1208   7.1446   9.2478   9.2926

     occupation numbers 
     1.0000   1.0000   1.0000   1.0000   1.0000   1.0000   1.0000   1.0000
     1.0000   1.0000   1.0000   1.0000   1.0000   1.0000   1.0000   1.0000
     1.0000   1.0000   1.0000   1.0000   1.0000   1.0000   1.0000   1.0000
     1.0000   1.0000   1.0000   1.0000   1.0000   1.0000   1.0000   1.0000
     1.0000   1.0000   1.0000   1.0000   1.0000   1.0000   1.0000   1.0000
     1.0000   1.0000   1.0000   1.0000   1.0000   1.0000

          k = 0.3125 0.5413 0.0138 (  6679 PWs)   bands (ev):

   -64.6814 -64.6811 -38.1500 -38.1491 -38.1462 -38.1453 -38.1433 -38.1426
   -38.1398 -38.1390 -38.1186 -38.1180 -38.1149 -38.1142 -38.1117 -38.1113
   -38.1083 -38.1078 -38.1002 -38.0968 -38.0929 -38.0897 -28.9720 -28.9718
   -28.9358 -28.9356 -28.8598 -28.8596  -3.2400  -3.2369  -3.0660  -3.0628
     3.9956   4.0192   4.0247   4.0280   5.0763   5.0999   5.5903   5.6226
     6.0692   6.1117   7.1208   7.1442   9.2482   9.2921

     occupation numbers 
     1.0000   1.0000   1.0000   1.0000   1.0000   1.0000   1.0000   1.0000
     1.0000   1.0000   1.0000   1.0000   1.0000   1.0000   1.0000   1.0000
     1.0000   1.0000   1.0000   1.0000   1.0000   1.0000   1.0000   1.0000
     1.0000   1.0000   1.0000   1.0000   1.0000   1.0000   1.0000   1.0000
     1.0000   1.0000   1.0000   1.0000   1.0000   1.0000   1.0000   1.0000
     1.0000   1.0000   1.0000   1.0000   1.0000   1.0000

          k = 0.3125 0.5413 0.0276 (  6680 PWs)   bands (ev):

   -64.6814 -64.6811 -38.1500 -38.1491 -38.1462 -38.1453 -38.1433 -38.1426
   -38.1398 -38.1390 -38.1186 -38.1180 -38.1149 -38.1142 -38.1117 -38.1113
   -38.1083 -38.1078 -38.1002 -38.0968 -38.0929 -38.0897 -28.9720 -28.9718
   -28.9358 -28.9356 -28.8598 -28.8596  -3.2399  -3.2370  -3.0659  -3.0629
     3.9962   4.0183   4.0250   4.0280   5.0770   5.0992   5.5903   5.6207
     6.0718   6.1118   7.1208   7.1429   9.2494   9.2908

     occupation numbers 
     1.0000   1.0000   1.0000   1.0000   1.0000   1.0000   1.0000   1.0000
     1.0000   1.0000   1.0000   1.0000   1.0000   1.0000   1.0000   1.0000
     1.0000   1.0000   1.0000   1.0000   1.0000   1.0000   1.0000   1.0000
     1.0000   1.0000   1.0000   1.0000   1.0000   1.0000   1.0000   1.0000
     1.0000   1.0000   1.0000   1.0000   1.0000   1.0000   1.0000   1.0000
     1.0000   1.0000   1.0000   1.0000   1.0000   1.0000

          k = 0.3125 0.5413 0.0414 (  6678 PWs)   bands (ev):

   -64.6814 -64.6811 -38.1500 -38.1491 -38.1462 -38.1453 -38.1433 -38.1426
   -38.1398 -38.1390 -38.1186 -38.1180 -38.1149 -38.1142 -38.1117 -38.1113
   -38.1083 -38.1078 -38.1002 -38.0968 -38.0929 -38.0897 -28.9720 -28.9718
   -28.9358 -28.9356 -28.8598 -28.8596  -3.2398  -3.2372  -3.0658  -3.0630
     3.9972   4.0169   4.0255   4.0280   5.0782   5.0981   5.5906   5.6177
     6.0760   6.1119   7.1210   7.1409   9.2514   9.2886

     occupation numbers 
     1.0000   1.0000   1.0000   1.0000   1.0000   1.0000   1.0000   1.0000
     1.0000   1.0000   1.0000   1.0000   1.0000   1.0000   1.0000   1.0000
     1.0000   1.0000   1.0000   1.0000   1.0000   1.0000   1.0000   1.0000
     1.0000   1.0000   1.0000   1.0000   1.0000   1.0000   1.0000   1.0000
     1.0000   1.0000   1.0000   1.0000   1.0000   1.0000   1.0000   1.0000
     1.0000   1.0000   1.0000   1.0000   1.0000   1.0000

          k = 0.3125 0.5413 0.0552 (  6678 PWs)   bands (ev):

   -64.6814 -64.6811 -38.1500 -38.1491 -38.1462 -38.1453 -38.1433 -38.1426
   -38.1398 -38.1390 -38.1186 -38.1180 -38.1149 -38.1142 -38.1117 -38.1113
   -38.1083 -38.1078 -38.1002 -38.0968 -38.0929 -38.0897 -28.9720 -28.9718
   -28.9358 -28.9356 -28.8598 -28.8596  -3.2396  -3.2374  -3.0656  -3.0632
     3.9986   4.0152   4.0260   4.0280   5.0797   5.0966   5.5911   5.6140
     6.0812   6.1116   7.1214   7.1383   9.2541   9.2857

     occupation numbers 
     1.0000   1.0000   1.0000   1.0000   1.0000   1.0000   1.0000   1.0000
     1.0000   1.0000   1.0000   1.0000   1.0000   1.0000   1.0000   1.0000
     1.0000   1.0000   1.0000   1.0000   1.0000   1.0000   1.0000   1.0000
     1.0000   1.0000   1.0000   1.0000   1.0000   1.0000   1.0000   1.0000
     1.0000   1.0000   1.0000   1.0000   1.0000   1.0000   1.0000   1.0000
     1.0000   1.0000   1.0000   1.0000   1.0000   1.0000

          k = 0.3125 0.5413 0.0690 (  6678 PWs)   bands (ev):

   -64.6814 -64.6811 -38.1500 -38.1491 -38.1462 -38.1453 -38.1433 -38.1426
   -38.1398 -38.1390 -38.1186 -38.1180 -38.1149 -38.1142 -38.1117 -38.1113
   -38.1083 -38.1078 -38.1002 -38.0968 -38.0929 -38.0897 -28.9720 -28.9718
   -28.9358 -28.9356 -28.8598 -28.8596  -3.2394  -3.2376  -3.0653  -3.0635
     4.0002   4.0132   4.0264   4.0279   5.0815   5.0948   5.5920   5.6099
     6.0869   6.1107   7.1220   7.1354   9.2574   9.2823

     occupation numbers 
     1.0000   1.0000   1.0000   1.0000   1.0000   1.0000   1.0000   1.0000
     1.0000   1.0000   1.0000   1.0000   1.0000   1.0000   1.0000   1.0000
     1.0000   1.0000   1.0000   1.0000   1.0000   1.0000   1.0000   1.0000
     1.0000   1.0000   1.0000   1.0000   1.0000   1.0000   1.0000   1.0000
     1.0000   1.0000   1.0000   1.0000   1.0000   1.0000   1.0000   1.0000
     1.0000   1.0000   1.0000   1.0000   1.0000   1.0000

          k = 0.3125 0.5413 0.0828 (  6684 PWs)   bands (ev):

   -64.6814 -64.6811 -38.1500 -38.1491 -38.1462 -38.1453 -38.1433 -38.1426
   -38.1398 -38.1390 -38.1186 -38.1180 -38.1149 -38.1142 -38.1117 -38.1113
   -38.1083 -38.1078 -38.1002 -38.0968 -38.0929 -38.0897 -28.9720 -28.9718
   -28.9358 -28.9356 -28.8598 -28.8596  -3.2391  -3.2379  -3.0650  -3.0638
     4.0022   4.0111   4.0267   4.0278   5.0836   5.0928   5.5935   5.6058
     6.0927   6.1091   7.1232   7.1324   9.2612   9.2783

     occupation numbers 
     1.0000   1.0000   1.0000   1.0000   1.0000   1.0000   1.0000   1.0000
     1.0000   1.0000   1.0000   1.0000   1.0000   1.0000   1.0000   1.0000
     1.0000   1.0000   1.0000   1.0000   1.0000   1.0000   1.0000   1.0000
     1.0000   1.0000   1.0000   1.0000   1.0000   1.0000   1.0000   1.0000
     1.0000   1.0000   1.0000   1.0000   1.0000   1.0000   1.0000   1.0000
     1.0000   1.0000   1.0000   1.0000   1.0000   1.0000

          k = 0.3125 0.5413 0.0966 (  6692 PWs)   bands (ev):

   -64.6814 -64.6811 -38.1500 -38.1491 -38.1462 -38.1453 -38.1433 -38.1426
   -38.1398 -38.1390 -38.1186 -38.1180 -38.1149 -38.1142 -38.1117 -38.1113
   -38.1083 -38.1078 -38.1002 -38.0968 -38.0929 -38.0897 -28.9720 -28.9718
   -28.9358 -28.9356 -28.8599 -28.8597  -3.2388  -3.2382  -3.0647  -3.0641
     4.0043   4.0088   4.0270   4.0277   5.0859   5.0906   5.5956   5.6019
     6.0981   6.1064   7.1248   7.1295   9.2653   9.2741

     occupation numbers 
     1.0000   1.0000   1.0000   1.0000   1.0000   1.0000   1.0000   1.0000
     1.0000   1.0000   1.0000   1.0000   1.0000   1.0000   1.0000   1.0000
     1.0000   1.0000   1.0000   1.0000   1.0000   1.0000   1.0000   1.0000
     1.0000   1.0000   1.0000   1.0000   1.0000   1.0000   1.0000   1.0000
     1.0000   1.0000   1.0000   1.0000   1.0000   1.0000   1.0000   1.0000
     1.0000   1.0000   1.0000   1.0000   1.0000   1.0000

          k = 0.3125 0.5413-0.1104 (  6682 PWs)   bands (ev):

   -64.6814 -64.6811 -38.1500 -38.1491 -38.1462 -38.1453 -38.1433 -38.1426
   -38.1398 -38.1390 -38.1186 -38.1180 -38.1149 -38.1142 -38.1117 -38.1113
   -38.1083 -38.1078 -38.1002 -38.0968 -38.0929 -38.0897 -28.9720 -28.9718
   -28.9358 -28.9356 -28.8598 -28.8596  -3.2386  -3.2384  -3.0644  -3.0643
     4.0061   4.0069   4.0271   4.0277   5.0882   5.0883   5.5983   5.5986
     6.1026   6.1029   7.1269   7.1269   9.2696   9.2697

     occupation numbers 
     1.0000   1.0000   1.0000   1.0000   1.0000   1.0000   1.0000   1.0000
     1.0000   1.0000   1.0000   1.0000   1.0000   1.0000   1.0000   1.0000
     1.0000   1.0000   1.0000   1.0000   1.0000   1.0000   1.0000   1.0000
     1.0000   1.0000   1.0000   1.0000   1.0000   1.0000   1.0000   1.0000
     1.0000   1.0000   1.0000   1.0000   1.0000   1.0000   1.0000   1.0000
     1.0000   1.0000   1.0000   1.0000   1.0000   1.0000

     highest occupied level (ev):     9.3805

!    total energy              =   -3096.21066576 Ry

     total all-electron energy =    -83980.935230 Ry
     estimated scf accuracy    <          1.3E-11 Ry

     The total energy is the sum of the following terms:
     one-electron contribution =   -1187.20112386 Ry
     hartree contribution      =     615.14656833 Ry
     xc contribution           =    -192.11387712 Ry
     ewald contribution        =    -587.04339949 Ry
     DFT-D3 Dispersion         =      -0.08580330 Ry
     one-center paw contrib.   =   -1744.91303032 Ry
      -> PAW hartree energy AE =     183.44009839 Ry
      -> PAW hartree energy PS =    -182.45624041 Ry
      -> PAW xc energy AE      =   -1270.55721945 Ry
      -> PAW xc energy PS      =      76.59136687 Ry
      -> total E_H with PAW    =     616.13042631 Ry
      -> total E_XC with PAW   =   -1386.07972970 Ry

     convergence has been achieved in   6 iterations

     negative rho (up, down):  1.142E-03 0.000E+00

     Forces acting on atoms (cartesian axes, Ry/au):

     atom    1 type  1   force =     0.00000000    0.00000000   -0.00000000
     atom    2 type  1   force =    -0.00000000   -0.00000000    0.00000000
     atom    3 type  2   force =     0.00000000   -0.00000000   -0.00002246
     atom    4 type  2   force =     0.00000000   -0.00000000   -0.00002246
     atom    5 type  2   force =     0.00000000   -0.00000000    0.00002246
     atom    6 type  2   force =     0.00000000    0.00000000    0.00002246
     The non-local contrib.  to forces
     atom    1 type  1   force =     0.00000000    0.00000000    0.00000000
     atom    2 type  1   force =    -0.00000000    0.00000000   -0.00000000
     atom    3 type  2   force =     0.00000000   -0.00000000   -0.72536906
     atom    4 type  2   force =    -0.00000000   -0.00000000   -0.72536906
     atom    5 type  2   force =     0.00000000    0.00000000    0.72536906
     atom    6 type  2   force =    -0.00000000   -0.00000000    0.72536906
     The ionic contribution  to forces
     atom    1 type  1   force =     0.00003985   -0.00002301   -0.00065342
     atom    2 type  1   force =    -0.00003985    0.00002301    0.00065342
     atom    3 type  2   force =    -0.00002003    0.00001156   52.23969449
     atom    4 type  2   force =     0.00002003   -0.00001156   52.24167184
     atom    5 type  2   force =    -0.00002003    0.00001156  -52.24167184
     atom    6 type  2   force =     0.00002003   -0.00001156  -52.23969449
     The local contribution  to forces
     atom    1 type  1   force =     0.00008919   -0.00002061    0.00130810
     atom    2 type  1   force =    -0.00021409    0.00015449    0.00301435
     atom    3 type  2   force =    -0.00154265    0.00094939  -51.51440359
     atom    4 type  2   force =     0.00053823   -0.00025200  -51.49505688
     atom    5 type  2   force =    -0.00157234    0.00096654   51.51923074
     atom    6 type  2   force =     0.00056793   -0.00026915   51.53864180
     The core correction contribution to forces
     atom    1 type  1   force =     0.00000200    0.00000211    0.00000854
     atom    2 type  1   force =    -0.00000035    0.00000347    0.00001948
     atom    3 type  2   force =    -0.00000256    0.00000174    0.00144184
     atom    4 type  2   force =     0.00000099   -0.00000031    0.00147440
     atom    5 type  2   force =    -0.00000262    0.00000178   -0.00143404
     atom    6 type  2   force =     0.00000104   -0.00000034   -0.00140180
     The Hubbard contrib.    to forces
     atom    1 type  1   force =     0.00000000    0.00000000    0.00000000
     atom    2 type  1   force =     0.00000000    0.00000000    0.00000000
     atom    3 type  2   force =     0.00000000    0.00000000    0.00000000
     atom    4 type  2   force =     0.00000000    0.00000000    0.00000000
     atom    5 type  2   force =     0.00000000    0.00000000    0.00000000
     atom    6 type  2   force =     0.00000000    0.00000000    0.00000000
     The SCF correction term to forces
     atom    1 type  1   force =     0.00000000   -0.00000000    0.00000000
     atom    2 type  1   force =    -0.00000000    0.00000000    0.00000000
     atom    3 type  2   force =     0.00000000   -0.00000000   -0.00000159
     atom    4 type  2   force =    -0.00000000    0.00000000   -0.00000159
     atom    5 type  2   force =     0.00000000   -0.00000000    0.00000159
     atom    6 type  2   force =    -0.00000000    0.00000000    0.00000159

     DFT-D3 dispersion contribution to forces:
     atom    1 type  1   force =     0.00000001   -0.00000001    0.00000004
     atom    2 type  1   force =    -0.00000001    0.00000001   -0.00000004
     atom    3 type  2   force =    -0.00000001    0.00000000    0.00006031
     atom    4 type  2   force =     0.00000001   -0.00000000    0.00006021
     atom    5 type  2   force =    -0.00000001    0.00000000   -0.00006021
     atom    6 type  2   force =     0.00000001   -0.00000000   -0.00006031

     Total force =     0.000045     Total SCF correction =     0.000003

     DFT-D3 dispersion Force =     0.000121
     Energy error            =      5.6E-08
     Gradient error          =      2.2E-05

     bfgs converged in   5 scf cycles and   4 bfgs steps
     (criteria: energy <  1.0E-04 Ry, force <  1.0E-04 Ry/Bohr)

     End of BFGS Geometry Optimization

     Final energy   =   -3096.2106657616 Ry

     File ./tmp/WSe2.bfgs deleted, as requested
Begin final coordinates

ATOMIC_POSITIONS (crystal)
W             0.3333330000        0.6666670000        0.2499990000
W             0.6666670000        0.3333330000        0.7499980000
Se            0.6666670000        0.3333330000        0.3595864071
Se            0.3333330000        0.6666670000        0.8595844071
Se            0.6666670000        0.3333330000        0.1404125929
Se            0.3333330000        0.6666670000        0.6404105929
End final coordinates



     Writing output data file ./tmp/WSe2.save/

     init_run     :      4.58s CPU      8.97s WALL (       1 calls)
     electrons    :  11099.08s CPU  11271.96s WALL (       5 calls)
     update_pot   :      7.30s CPU      7.19s WALL (       4 calls)
     forces       :    178.12s CPU    176.86s WALL (       5 calls)

     Called by init_run:
     wfcinit      :      2.11s CPU      6.13s WALL (       1 calls)
     potinit      :      0.60s CPU      0.67s WALL (       1 calls)
     hinit0       :      1.33s CPU      1.39s WALL (       1 calls)

     Called by electrons:
     c_bands      :  10115.94s CPU  10251.85s WALL (      56 calls)
     sum_band     :    928.51s CPU    959.60s WALL (      56 calls)
     v_of_rho     :      6.65s CPU      7.33s WALL (      56 calls)
     v_h          :      0.53s CPU      0.56s WALL (      56 calls)
     v_xc         :      6.65s CPU      7.33s WALL (      61 calls)
     newd         :     22.59s CPU     28.04s WALL (      56 calls)
     PAW_pot      :     26.21s CPU     26.26s WALL (      60 calls)
     mix_rho      :      1.13s CPU      1.20s WALL (      56 calls)

     Called by c_bands:
     init_us_2    :     54.68s CPU     55.06s WALL (   32670 calls)
     cegterg      :   9870.06s CPU  10004.78s WALL (   15120 calls)

     Called by sum_band:
     sum_band:wei :      0.01s CPU      0.01s WALL (      56 calls)
     sum_band:loo :    893.25s CPU    917.83s WALL (      56 calls)
     sum_band:buf :      8.82s CPU      8.92s WALL (   15120 calls)
     sum_band:ini :     24.77s CPU     24.86s WALL (   15120 calls)
     sum_band:cal :    487.28s CPU    491.95s WALL (   16200 calls)
     sum_band:bec :      2.64s CPU      2.65s WALL (   16200 calls)
     addusdens    :     33.24s CPU     39.55s WALL (      56 calls)
     addusd:skk   :      0.08s CPU      0.09s WALL (     112 calls)
     addusd:dgemm :     14.65s CPU     20.55s WALL (     112 calls)
     addusd:qvan2 :     17.09s CPU     17.10s WALL (     112 calls)

     Called by *egterg:
     cdiaghg      :    336.36s CPU    339.18s WALL (   74849 calls)
     cegterg:over :   1441.08s CPU   1446.06s WALL (   62429 calls)
     cegterg:upda :    625.32s CPU    629.61s WALL (   62429 calls)
     cegterg:last :   1514.02s CPU   1520.33s WALL (   34776 calls)
     cdiaghg:chol :     22.51s CPU     22.65s WALL (   74849 calls)
     cdiaghg:inve :      2.84s CPU      2.87s WALL (   74849 calls)
     cdiaghg:para :     94.07s CPU     94.86s WALL (  149698 calls)
     h_psi        :   4419.65s CPU   4532.75s WALL (   77549 calls)
     s_psi        :   1020.01s CPU   1022.31s WALL (   77549 calls)
     g_psi        :     39.02s CPU     39.16s WALL (   62429 calls)

     Called by h_psi:
     h_psi:calbec :   1302.94s CPU   1320.88s WALL (   77549 calls)
     vloc_psi     :   2044.24s CPU   2137.05s WALL (   77549 calls)
     add_vuspsi   :   1050.97s CPU   1053.66s WALL (   77549 calls)

     General routines
     calbec       :   1945.41s CPU   1966.67s WALL (   99149 calls)
     fft          :      6.46s CPU      6.78s WALL (     782 calls)
     ffts         :      0.13s CPU      0.13s WALL (     112 calls)
     fftw         :   2140.47s CPU   2239.34s WALL ( 4552228 calls)
     interpolate  :      0.58s CPU      0.58s WALL (      56 calls)

     Parallel routines
     fft_scatt_xy :    288.67s CPU    301.93s WALL ( 4553122 calls)
     fft_scatt_yz :    754.10s CPU    789.74s WALL ( 4553122 calls)

     PAW routines
     PAW_pot      :     26.21s CPU     26.26s WALL (      60 calls)
     PAW_symme    :      0.05s CPU      0.05s WALL (     115 calls)

     PWSCF        :      3h 8m CPU      3h11m WALL


   This run was terminated on:  14: 8:51   7Sep2024            

=------------------------------------------------------------------------------=
   JOB DONE.
=------------------------------------------------------------------------------=
