
     Program PWSCF v.6.7MaX starts on  6Sep2024 at 17: 0:37 

     This program is part of the open-source Quantum ESPRESSO suite
     for quantum simulation of materials; please cite
         "P. Giannozzi et al., J. Phys.:Condens. Matter 21 395502 (2009);
         "P. Giannozzi et al., J. Phys.:Condens. Matter 29 465901 (2017);
          URL http://www.quantum-espresso.org", 
     in publications or presentations arising from this work. More details at
     http://www.quantum-espresso.org/quote

     Parallel version (MPI), running on     4 processors

     MPI processes distributed on     1 nodes
     R & G space division:  proc/nbgrp/npool/nimage =       4
     Reading input from WSe2_SCF.inp

     Current dimensions of program PWSCF are:
     Max number of different atomic species (ntypx) = 10
     Max number of k-points (npk) =  40000
     Max angular momentum in pseudopotentials (lmaxx) =  3
     file W.pbe-spn-kjpaw_psl.1.0.0.UPF: wavefunction(s)  6S 5P 5D renormalized
     file Se.pbe-dn-kjpaw_psl.1.0.0.UPF: wavefunction(s)  4S 4P 3D renormalized

     IMPORTANT: XC functional enforced from input :
     Exchange-correlation= PBE
                           (   1   4   3   4   0   0   0)
     Any further DFT definition will be discarded
     Please, verify this is what you really want


     Subspace diagonalization in iterative solution of the eigenvalue problem:
     one sub-group per band group will be used
     scalapack distributed-memory algorithm (size of sub-group:  2*  2 procs)


     Parallelization info
     --------------------
     sticks:   dense  smooth     PW     G-vecs:    dense   smooth      PW
     Min         321     136     40                42597    11636    1894
     Max         322     137     41                42620    11647    1905
     Sum        1285     547    163               170417    46575    7599



     bravais-lattice index     =            4
     lattice parameter (alat)  =       6.2873  a.u.
     unit-cell volume          =     974.8449 (a.u.)^3
     number of atoms/cell      =            6
     number of atomic types    =            2
     number of electrons       =        92.00
     number of Kohn-Sham states=           46
     kinetic-energy cutoff     =      50.0000  Ry
     charge density cutoff     =     475.0000  Ry
     scf convergence threshold =      1.0E-08
     mixing beta               =       0.6000
     number of iterations used =            8  plain     mixing
     Exchange-correlation= PBE
                           (   1   4   3   4   0   0   0)

     celldm(1)=   6.287251  celldm(2)=   0.000000  celldm(3)=   4.529210
     celldm(4)=   0.000000  celldm(5)=   0.000000  celldm(6)=   0.000000

     crystal axes: (cart. coord. in units of alat)
               a(1) = (   1.000000   0.000000   0.000000 )  
               a(2) = (  -0.500000   0.866025   0.000000 )  
               a(3) = (   0.000000   0.000000   4.529210 )  

     reciprocal axes: (cart. coord. in units 2 pi/alat)
               b(1) = (  1.000000  0.577350 -0.000000 )  
               b(2) = (  0.000000  1.154701  0.000000 )  
               b(3) = (  0.000000 -0.000000  0.220789 )  


     PseudoPot. # 1 for W  read from file:
     /home/alessandro_rotondi/q-e/pseudo/W.pbe-spn-kjpaw_psl.1.0.0.UPF
     MD5 check sum: 03c3df5b60893f488392c7401945500a
     Pseudo is Projector augmented-wave + core cor, Zval = 14.0
     Generated using &quot;atomic&quot; code by A. Dal Corso  v.6.2.2
     Shape of augmentation charge: PSQ
     Using radial grid of 1273 points,  6 beta functions with: 
                l(1) =   0
                l(2) =   0
                l(3) =   1
                l(4) =   1
                l(5) =   2
                l(6) =   2
     Q(r) pseudized with 0 coefficients 


     PseudoPot. # 2 for Se read from file:
     /home/alessandro_rotondi/q-e/pseudo/Se.pbe-dn-kjpaw_psl.1.0.0.UPF
     MD5 check sum: ac240dd2bae32a30e0bf3a38df9c8785
     Pseudo is Projector augmented-wave + core cor, Zval = 16.0
     Generated using &quot;atomic&quot; code by A. Dal Corso  v.6.3
     Shape of augmentation charge: PSQ
     Using radial grid of 1211 points,  6 beta functions with: 
                l(1) =   0
                l(2) =   0
                l(3) =   1
                l(4) =   1
                l(5) =   2
                l(6) =   2
     Q(r) pseudized with 0 coefficients 


     atomic species   valence    mass     pseudopotential
        W             14.00   183.84000     W ( 1.00)
        Se            16.00    78.96000     Se( 1.00)

     24 Sym. Ops., with inversion, found (12 have fractional translation)


                                    s                        frac. trans.

      isym =  1     identity                                     

 cryst.   s( 1) = (     1          0          0      )
                  (     0          1          0      )
                  (     0          0          1      )

 cart.    s( 1) = (  1.0000000  0.0000000  0.0000000 )
                  (  0.0000000  1.0000000  0.0000000 )
                  (  0.0000000  0.0000000  1.0000000 )


      isym =  2     180 deg rotation - cart. axis [0,0,1]        

 cryst.   s( 2) = (    -1          0          0      )    f =(  0.0000000 )
                  (     0         -1          0      )       (  0.0000000 )
                  (     0          0          1      )       (  0.4999990 )

 cart.    s( 2) = ( -1.0000000  0.0000000  0.0000000 )    f =(  0.0000000 )
                  (  0.0000000 -1.0000000  0.0000000 )       (  0.0000000 )
                  (  0.0000000  0.0000000  1.0000000 )       (  2.2646007 )


      isym =  3     180 deg rotation - cart. axis [0,1,0]        

 cryst.   s( 3) = (    -1          0          0      )    f =(  0.0000010 )
                  (     1          1          0      )       (  0.0000000 )
                  (     0          0         -1      )       ( -0.4999980 )

 cart.    s( 3) = ( -1.0000000  0.0000000  0.0000000 )    f =(  0.0000010 )
                  (  0.0000000  1.0000000  0.0000000 )       (  0.0000000 )
                  (  0.0000000  0.0000000 -1.0000000 )       ( -2.2645961 )


      isym =  4     180 deg rotation - cart. axis [1,0,0]        

 cryst.   s( 4) = (     1          0          0      )
                  (    -1         -1          0      )
                  (     0          0         -1      )

 cart.    s( 4) = (  1.0000000  0.0000000  0.0000000 )
                  (  0.0000000 -1.0000000  0.0000000 )
                  (  0.0000000  0.0000000 -1.0000000 )


      isym =  5      60 deg rotation - cryst. axis [0,0,1]       

 cryst.   s( 5) = (     1          1          0      )    f =(  0.0000010 )
                  (    -1          0          0      )       (  0.0000000 )
                  (     0          0          1      )       (  0.4999990 )

 cart.    s( 5) = (  0.5000000 -0.8660254  0.0000000 )    f =(  0.0000010 )
                  (  0.8660254  0.5000000  0.0000000 )       (  0.0000000 )
                  (  0.0000000  0.0000000  1.0000000 )       (  2.2646007 )


      isym =  6      60 deg rotation - cryst. axis [0,0,-1]      

 cryst.   s( 6) = (     0         -1          0      )    f =(  0.0000000 )
                  (     1          1          0      )       ( -0.0000010 )
                  (     0          0          1      )       (  0.4999990 )

 cart.    s( 6) = (  0.5000000  0.8660254  0.0000000 )    f =(  0.0000005 )
                  ( -0.8660254  0.5000000  0.0000000 )       ( -0.0000009 )
                  (  0.0000000  0.0000000  1.0000000 )       (  2.2646007 )


      isym =  7     120 deg rotation - cryst. axis [0,0,1]       

 cryst.   s( 7) = (     0          1          0      )
                  (    -1         -1          0      )
                  (     0          0          1      )

 cart.    s( 7) = ( -0.5000000 -0.8660254  0.0000000 )
                  (  0.8660254 -0.5000000  0.0000000 )
                  (  0.0000000  0.0000000  1.0000000 )


      isym =  8     120 deg rotation - cryst. axis [0,0,-1]      

 cryst.   s( 8) = (    -1         -1          0      )
                  (     1          0          0      )
                  (     0          0          1      )

 cart.    s( 8) = ( -0.5000000  0.8660254  0.0000000 )
                  ( -0.8660254 -0.5000000  0.0000000 )
                  (  0.0000000  0.0000000  1.0000000 )


      isym =  9     180 deg rotation - cryst. axis [1,-1,0]      

 cryst.   s( 9) = (     0         -1          0      )    f =(  0.0000000 )
                  (    -1          0          0      )       (  0.0000000 )
                  (     0          0         -1      )       ( -0.4999980 )

 cart.    s( 9) = (  0.5000000 -0.8660254  0.0000000 )    f =(  0.0000000 )
                  ( -0.8660254 -0.5000000  0.0000000 )       (  0.0000000 )
                  (  0.0000000  0.0000000 -1.0000000 )       ( -2.2645961 )


      isym = 10     180 deg rotation - cryst. axis [2,1,0]       

 cryst.   s(10) = (     1          1          0      )    f =(  0.0000000 )
                  (     0         -1          0      )       ( -0.0000010 )
                  (     0          0         -1      )       ( -0.4999980 )

 cart.    s(10) = (  0.5000000  0.8660254  0.0000000 )    f =(  0.0000005 )
                  (  0.8660254 -0.5000000  0.0000000 )       ( -0.0000009 )
                  (  0.0000000  0.0000000 -1.0000000 )       ( -2.2645961 )


      isym = 11     180 deg rotation - cryst. axis [0,1,0]       

 cryst.   s(11) = (    -1         -1          0      )
                  (     0          1          0      )
                  (     0          0         -1      )

 cart.    s(11) = ( -0.5000000 -0.8660254  0.0000000 )
                  ( -0.8660254  0.5000000  0.0000000 )
                  (  0.0000000  0.0000000 -1.0000000 )


      isym = 12     180 deg rotation - cryst. axis [1,1,0]       

 cryst.   s(12) = (     0          1          0      )
                  (     1          0          0      )
                  (     0          0         -1      )

 cart.    s(12) = ( -0.5000000  0.8660254  0.0000000 )
                  (  0.8660254  0.5000000  0.0000000 )
                  (  0.0000000  0.0000000 -1.0000000 )


      isym = 13     inversion                                    

 cryst.   s(13) = (    -1          0          0      )
                  (     0         -1          0      )
                  (     0          0         -1      )

 cart.    s(13) = ( -1.0000000  0.0000000  0.0000000 )
                  (  0.0000000 -1.0000000  0.0000000 )
                  (  0.0000000  0.0000000 -1.0000000 )


      isym = 14     inv. 180 deg rotation - cart. axis [0,0,1]   

 cryst.   s(14) = (     1          0          0      )    f =(  0.0000000 )
                  (     0          1          0      )       (  0.0000000 )
                  (     0          0         -1      )       ( -0.4999980 )

 cart.    s(14) = (  1.0000000  0.0000000  0.0000000 )    f =(  0.0000000 )
                  (  0.0000000  1.0000000  0.0000000 )       (  0.0000000 )
                  (  0.0000000  0.0000000 -1.0000000 )       ( -2.2645961 )


      isym = 15     inv. 180 deg rotation - cart. axis [0,1,0]   

 cryst.   s(15) = (     1          0          0      )    f =(  0.0000010 )
                  (    -1         -1          0      )       (  0.0000000 )
                  (     0          0          1      )       (  0.4999990 )

 cart.    s(15) = (  1.0000000  0.0000000  0.0000000 )    f =(  0.0000010 )
                  (  0.0000000 -1.0000000  0.0000000 )       (  0.0000000 )
                  (  0.0000000  0.0000000  1.0000000 )       (  2.2646007 )


      isym = 16     inv. 180 deg rotation - cart. axis [1,0,0]   

 cryst.   s(16) = (    -1          0          0      )
                  (     1          1          0      )
                  (     0          0          1      )

 cart.    s(16) = ( -1.0000000  0.0000000  0.0000000 )
                  (  0.0000000  1.0000000  0.0000000 )
                  (  0.0000000  0.0000000  1.0000000 )


      isym = 17     inv.  60 deg rotation - cryst. axis [0,0,1]  

 cryst.   s(17) = (    -1         -1          0      )    f =(  0.0000010 )
                  (     1          0          0      )       (  0.0000000 )
                  (     0          0         -1      )       ( -0.4999980 )

 cart.    s(17) = ( -0.5000000  0.8660254  0.0000000 )    f =(  0.0000010 )
                  ( -0.8660254 -0.5000000  0.0000000 )       (  0.0000000 )
                  (  0.0000000  0.0000000 -1.0000000 )       ( -2.2645961 )


      isym = 18     inv.  60 deg rotation - cryst. axis [0,0,-1] 

 cryst.   s(18) = (     0          1          0      )    f =(  0.0000000 )
                  (    -1         -1          0      )       ( -0.0000010 )
                  (     0          0         -1      )       ( -0.4999980 )

 cart.    s(18) = ( -0.5000000 -0.8660254  0.0000000 )    f =(  0.0000005 )
                  (  0.8660254 -0.5000000  0.0000000 )       ( -0.0000009 )
                  (  0.0000000  0.0000000 -1.0000000 )       ( -2.2645961 )


      isym = 19     inv. 120 deg rotation - cryst. axis [0,0,1]  

 cryst.   s(19) = (     0         -1          0      )
                  (     1          1          0      )
                  (     0          0         -1      )

 cart.    s(19) = (  0.5000000  0.8660254  0.0000000 )
                  ( -0.8660254  0.5000000  0.0000000 )
                  (  0.0000000  0.0000000 -1.0000000 )


      isym = 20     inv. 120 deg rotation - cryst. axis [0,0,-1] 

 cryst.   s(20) = (     1          1          0      )
                  (    -1          0          0      )
                  (     0          0         -1      )

 cart.    s(20) = (  0.5000000 -0.8660254  0.0000000 )
                  (  0.8660254  0.5000000  0.0000000 )
                  (  0.0000000  0.0000000 -1.0000000 )


      isym = 21     inv. 180 deg rotation - cryst. axis [1,-1,0] 

 cryst.   s(21) = (     0          1          0      )    f =(  0.0000000 )
                  (     1          0          0      )       (  0.0000000 )
                  (     0          0          1      )       (  0.4999990 )

 cart.    s(21) = ( -0.5000000  0.8660254  0.0000000 )    f =( -0.0000000 )
                  (  0.8660254  0.5000000  0.0000000 )       (  0.0000000 )
                  (  0.0000000  0.0000000  1.0000000 )       (  2.2646007 )


      isym = 22     inv. 180 deg rotation - cryst. axis [2,1,0]  

 cryst.   s(22) = (    -1         -1          0      )    f =(  0.0000000 )
                  (     0          1          0      )       ( -0.0000010 )
                  (     0          0          1      )       (  0.4999990 )

 cart.    s(22) = ( -0.5000000 -0.8660254  0.0000000 )    f =(  0.0000005 )
                  ( -0.8660254  0.5000000  0.0000000 )       ( -0.0000009 )
                  (  0.0000000  0.0000000  1.0000000 )       (  2.2646007 )


      isym = 23     inv. 180 deg rotation - cryst. axis [0,1,0]  

 cryst.   s(23) = (     1          1          0      )
                  (     0         -1          0      )
                  (     0          0          1      )

 cart.    s(23) = (  0.5000000  0.8660254  0.0000000 )
                  (  0.8660254 -0.5000000  0.0000000 )
                  (  0.0000000  0.0000000  1.0000000 )


      isym = 24     inv. 180 deg rotation - cryst. axis [1,1,0]  

 cryst.   s(24) = (     0         -1          0      )
                  (    -1          0          0      )
                  (     0          0          1      )

 cart.    s(24) = (  0.5000000 -0.8660254  0.0000000 )
                  ( -0.8660254 -0.5000000  0.0000000 )
                  (  0.0000000  0.0000000  1.0000000 )


     point group D_6h(6/mmm)
     there are 12 classes
     the character table:

       E     2C6   2C3   C2    3C2'  3C2'' i     2S3   2S6   s_h   3s_d  3s_v 
A_1g   1.00  1.00  1.00  1.00  1.00  1.00  1.00  1.00  1.00  1.00  1.00  1.00
A_2g   1.00  1.00  1.00  1.00 -1.00 -1.00  1.00  1.00  1.00  1.00 -1.00 -1.00
B_1g   1.00 -1.00  1.00 -1.00  1.00 -1.00  1.00 -1.00  1.00 -1.00  1.00 -1.00
B_2g   1.00 -1.00  1.00 -1.00 -1.00  1.00  1.00 -1.00  1.00 -1.00 -1.00  1.00
E_1g   2.00  1.00 -1.00 -2.00  0.00  0.00  2.00  1.00 -1.00 -2.00  0.00  0.00
E_2g   2.00 -1.00 -1.00  2.00  0.00  0.00  2.00 -1.00 -1.00  2.00  0.00  0.00
A_1u   1.00  1.00  1.00  1.00  1.00  1.00 -1.00 -1.00 -1.00 -1.00 -1.00 -1.00
A_2u   1.00  1.00  1.00  1.00 -1.00 -1.00 -1.00 -1.00 -1.00 -1.00  1.00  1.00
B_1u   1.00 -1.00  1.00 -1.00  1.00 -1.00 -1.00  1.00 -1.00  1.00 -1.00  1.00
B_2u   1.00 -1.00  1.00 -1.00 -1.00  1.00 -1.00  1.00 -1.00  1.00  1.00 -1.00
E_1u   2.00  1.00 -1.00 -2.00  0.00  0.00 -2.00 -1.00  1.00  2.00  0.00  0.00
E_2u   2.00 -1.00 -1.00  2.00  0.00  0.00 -2.00  1.00  1.00 -2.00  0.00  0.00

     the symmetry operations in each class and the name of the first element:

     E        1
          identity                                               
     2C6      5    6
           60 deg rotation - cryst. axis [0,0,1]                 
     2C3      7    8
          120 deg rotation - cryst. axis [0,0,1]                 
     C2       2
          180 deg rotation - cart. axis [0,0,1]                  
     3C2'     4   12   11
          180 deg rotation - cart. axis [1,0,0]                  
     3C2''    3    9   10
          180 deg rotation - cart. axis [0,1,0]                  
     i       13
          inversion                                              
     2S3     17   18
          inv.  60 deg rotation - cryst. axis [0,0,1]            
     2S6     19   20
          inv. 120 deg rotation - cryst. axis [0,0,1]            
     s_h     14
          inv. 180 deg rotation - cart. axis [0,0,1]             
     3s_d    16   24   23
          inv. 180 deg rotation - cart. axis [1,0,0]             
     3s_v    15   21   22
          inv. 180 deg rotation - cart. axis [0,1,0]             

   Cartesian axes

     site n.     atom                  positions (alat units)
         1           W   tau(   1) = (  -0.0000005   0.5773506   1.1322981  )
         2           W   tau(   2) = (   0.5000005   0.2886748   3.3968987  )
         3           Se  tau(   3) = (   0.5000005   0.2886748   1.6376175  )
         4           Se  tau(   4) = (  -0.0000005   0.5773506   3.9022137  )
         5           Se  tau(   5) = (   0.5000005   0.2886748   0.6269831  )
         6           Se  tau(   6) = (  -0.0000005   0.5773506   2.8915793  )

   Crystallographic axes

     site n.     atom                  positions (cryst. coord.)
         1           W   tau(   1) = (  0.3333330  0.6666670  0.2499990  )
         2           W   tau(   2) = (  0.6666670  0.3333330  0.7499980  )
         3           Se  tau(   3) = (  0.6666670  0.3333330  0.3615680  )
         4           Se  tau(   4) = (  0.3333330  0.6666670  0.8615660  )
         5           Se  tau(   5) = (  0.6666670  0.3333330  0.1384310  )
         6           Se  tau(   6) = (  0.3333330  0.6666670  0.6384290  )

     number of k points=   270
                       cart. coord. in units 2pi/alat
        k(    1) = (   0.0000000   0.0000000   0.0000000), wk =   0.0004883
        k(    2) = (   0.0000000   0.0000000   0.0137993), wk =   0.0009766
        k(    3) = (   0.0000000   0.0000000   0.0275986), wk =   0.0009766
        k(    4) = (   0.0000000   0.0000000   0.0413979), wk =   0.0009766
        k(    5) = (   0.0000000   0.0000000   0.0551973), wk =   0.0009766
        k(    6) = (   0.0000000   0.0000000   0.0689966), wk =   0.0009766
        k(    7) = (   0.0000000   0.0000000   0.0827959), wk =   0.0009766
        k(    8) = (   0.0000000   0.0000000   0.0965952), wk =   0.0009766
        k(    9) = (   0.0000000   0.0000000  -0.1103945), wk =   0.0004883
        k(   10) = (   0.0000000   0.0721688   0.0000000), wk =   0.0029297
        k(   11) = (   0.0000000   0.0721688   0.0137993), wk =   0.0058594
        k(   12) = (   0.0000000   0.0721688   0.0275986), wk =   0.0058594
        k(   13) = (   0.0000000   0.0721688   0.0413979), wk =   0.0058594
        k(   14) = (   0.0000000   0.0721688   0.0551973), wk =   0.0058594
        k(   15) = (   0.0000000   0.0721688   0.0689966), wk =   0.0058594
        k(   16) = (   0.0000000   0.0721688   0.0827959), wk =   0.0058594
        k(   17) = (   0.0000000   0.0721688   0.0965952), wk =   0.0058594
        k(   18) = (   0.0000000   0.0721688  -0.1103945), wk =   0.0029297
        k(   19) = (   0.0000000   0.1443376   0.0000000), wk =   0.0029297
        k(   20) = (   0.0000000   0.1443376   0.0137993), wk =   0.0058594
        k(   21) = (   0.0000000   0.1443376   0.0275986), wk =   0.0058594
        k(   22) = (   0.0000000   0.1443376   0.0413979), wk =   0.0058594
        k(   23) = (   0.0000000   0.1443376   0.0551973), wk =   0.0058594
        k(   24) = (   0.0000000   0.1443376   0.0689966), wk =   0.0058594
        k(   25) = (   0.0000000   0.1443376   0.0827959), wk =   0.0058594
        k(   26) = (   0.0000000   0.1443376   0.0965952), wk =   0.0058594
        k(   27) = (   0.0000000   0.1443376  -0.1103945), wk =   0.0029297
        k(   28) = (   0.0000000   0.2165064   0.0000000), wk =   0.0029297
        k(   29) = (   0.0000000   0.2165064   0.0137993), wk =   0.0058594
        k(   30) = (   0.0000000   0.2165064   0.0275986), wk =   0.0058594
        k(   31) = (   0.0000000   0.2165064   0.0413979), wk =   0.0058594
        k(   32) = (   0.0000000   0.2165064   0.0551973), wk =   0.0058594
        k(   33) = (   0.0000000   0.2165064   0.0689966), wk =   0.0058594
        k(   34) = (   0.0000000   0.2165064   0.0827959), wk =   0.0058594
        k(   35) = (   0.0000000   0.2165064   0.0965952), wk =   0.0058594
        k(   36) = (   0.0000000   0.2165064  -0.1103945), wk =   0.0029297
        k(   37) = (   0.0000000   0.2886751   0.0000000), wk =   0.0029297
        k(   38) = (   0.0000000   0.2886751   0.0137993), wk =   0.0058594
        k(   39) = (   0.0000000   0.2886751   0.0275986), wk =   0.0058594
        k(   40) = (   0.0000000   0.2886751   0.0413979), wk =   0.0058594
        k(   41) = (   0.0000000   0.2886751   0.0551973), wk =   0.0058594
        k(   42) = (   0.0000000   0.2886751   0.0689966), wk =   0.0058594
        k(   43) = (   0.0000000   0.2886751   0.0827959), wk =   0.0058594
        k(   44) = (   0.0000000   0.2886751   0.0965952), wk =   0.0058594
        k(   45) = (   0.0000000   0.2886751  -0.1103945), wk =   0.0029297
        k(   46) = (   0.0000000   0.3608439   0.0000000), wk =   0.0029297
        k(   47) = (   0.0000000   0.3608439   0.0137993), wk =   0.0058594
        k(   48) = (   0.0000000   0.3608439   0.0275986), wk =   0.0058594
        k(   49) = (   0.0000000   0.3608439   0.0413979), wk =   0.0058594
        k(   50) = (   0.0000000   0.3608439   0.0551973), wk =   0.0058594
        k(   51) = (   0.0000000   0.3608439   0.0689966), wk =   0.0058594
        k(   52) = (   0.0000000   0.3608439   0.0827959), wk =   0.0058594
        k(   53) = (   0.0000000   0.3608439   0.0965952), wk =   0.0058594
        k(   54) = (   0.0000000   0.3608439  -0.1103945), wk =   0.0029297
        k(   55) = (   0.0000000   0.4330127   0.0000000), wk =   0.0029297
        k(   56) = (   0.0000000   0.4330127   0.0137993), wk =   0.0058594
        k(   57) = (   0.0000000   0.4330127   0.0275986), wk =   0.0058594
        k(   58) = (   0.0000000   0.4330127   0.0413979), wk =   0.0058594
        k(   59) = (   0.0000000   0.4330127   0.0551973), wk =   0.0058594
        k(   60) = (   0.0000000   0.4330127   0.0689966), wk =   0.0058594
        k(   61) = (   0.0000000   0.4330127   0.0827959), wk =   0.0058594
        k(   62) = (   0.0000000   0.4330127   0.0965952), wk =   0.0058594
        k(   63) = (   0.0000000   0.4330127  -0.1103945), wk =   0.0029297
        k(   64) = (   0.0000000   0.5051815   0.0000000), wk =   0.0029297
        k(   65) = (   0.0000000   0.5051815   0.0137993), wk =   0.0058594
        k(   66) = (   0.0000000   0.5051815   0.0275986), wk =   0.0058594
        k(   67) = (   0.0000000   0.5051815   0.0413979), wk =   0.0058594
        k(   68) = (   0.0000000   0.5051815   0.0551973), wk =   0.0058594
        k(   69) = (   0.0000000   0.5051815   0.0689966), wk =   0.0058594
        k(   70) = (   0.0000000   0.5051815   0.0827959), wk =   0.0058594
        k(   71) = (   0.0000000   0.5051815   0.0965952), wk =   0.0058594
        k(   72) = (   0.0000000   0.5051815  -0.1103945), wk =   0.0029297
        k(   73) = (   0.0000000  -0.5773503   0.0000000), wk =   0.0014648
        k(   74) = (   0.0000000  -0.5773503   0.0137993), wk =   0.0029297
        k(   75) = (   0.0000000  -0.5773503   0.0275986), wk =   0.0029297
        k(   76) = (   0.0000000  -0.5773503   0.0413979), wk =   0.0029297
        k(   77) = (   0.0000000  -0.5773503   0.0551973), wk =   0.0029297
        k(   78) = (   0.0000000  -0.5773503   0.0689966), wk =   0.0029297
        k(   79) = (   0.0000000  -0.5773503   0.0827959), wk =   0.0029297
        k(   80) = (   0.0000000  -0.5773503   0.0965952), wk =   0.0029297
        k(   81) = (   0.0000000  -0.5773503  -0.1103945), wk =   0.0014648
        k(   82) = (   0.0625000   0.1082532   0.0000000), wk =   0.0029297
        k(   83) = (   0.0625000   0.1082532   0.0137993), wk =   0.0058594
        k(   84) = (   0.0625000   0.1082532   0.0275986), wk =   0.0058594
        k(   85) = (   0.0625000   0.1082532   0.0413979), wk =   0.0058594
        k(   86) = (   0.0625000   0.1082532   0.0551973), wk =   0.0058594
        k(   87) = (   0.0625000   0.1082532   0.0689966), wk =   0.0058594
        k(   88) = (   0.0625000   0.1082532   0.0827959), wk =   0.0058594
        k(   89) = (   0.0625000   0.1082532   0.0965952), wk =   0.0058594
        k(   90) = (   0.0625000   0.1082532  -0.1103945), wk =   0.0029297
        k(   91) = (   0.0625000   0.1804220   0.0000000), wk =   0.0058594
        k(   92) = (   0.0625000   0.1804220   0.0137993), wk =   0.0117188
        k(   93) = (   0.0625000   0.1804220   0.0275986), wk =   0.0117188
        k(   94) = (   0.0625000   0.1804220   0.0413979), wk =   0.0117188
        k(   95) = (   0.0625000   0.1804220   0.0551973), wk =   0.0117188
        k(   96) = (   0.0625000   0.1804220   0.0689966), wk =   0.0117188
        k(   97) = (   0.0625000   0.1804220   0.0827959), wk =   0.0117188
        k(   98) = (   0.0625000   0.1804220   0.0965952), wk =   0.0117188
        k(   99) = (   0.0625000   0.1804220  -0.1103945), wk =   0.0058594
        k(  100) = (   0.0625000   0.2525907   0.0000000), wk =   0.0058594
        k(  101) = (   0.0625000   0.2525907   0.0137993), wk =   0.0117188
        k(  102) = (   0.0625000   0.2525907   0.0275986), wk =   0.0117188
        k(  103) = (   0.0625000   0.2525907   0.0413979), wk =   0.0117188
        k(  104) = (   0.0625000   0.2525907   0.0551973), wk =   0.0117188
        k(  105) = (   0.0625000   0.2525907   0.0689966), wk =   0.0117188
        k(  106) = (   0.0625000   0.2525907   0.0827959), wk =   0.0117188
        k(  107) = (   0.0625000   0.2525907   0.0965952), wk =   0.0117188
        k(  108) = (   0.0625000   0.2525907  -0.1103945), wk =   0.0058594
        k(  109) = (   0.0625000   0.3247595   0.0000000), wk =   0.0058594
        k(  110) = (   0.0625000   0.3247595   0.0137993), wk =   0.0117188
        k(  111) = (   0.0625000   0.3247595   0.0275986), wk =   0.0117188
        k(  112) = (   0.0625000   0.3247595   0.0413979), wk =   0.0117188
        k(  113) = (   0.0625000   0.3247595   0.0551973), wk =   0.0117188
        k(  114) = (   0.0625000   0.3247595   0.0689966), wk =   0.0117188
        k(  115) = (   0.0625000   0.3247595   0.0827959), wk =   0.0117188
        k(  116) = (   0.0625000   0.3247595   0.0965952), wk =   0.0117188
        k(  117) = (   0.0625000   0.3247595  -0.1103945), wk =   0.0058594
        k(  118) = (   0.0625000   0.3969283   0.0000000), wk =   0.0058594
        k(  119) = (   0.0625000   0.3969283   0.0137993), wk =   0.0117188
        k(  120) = (   0.0625000   0.3969283   0.0275986), wk =   0.0117188
        k(  121) = (   0.0625000   0.3969283   0.0413979), wk =   0.0117188
        k(  122) = (   0.0625000   0.3969283   0.0551973), wk =   0.0117188
        k(  123) = (   0.0625000   0.3969283   0.0689966), wk =   0.0117188
        k(  124) = (   0.0625000   0.3969283   0.0827959), wk =   0.0117188
        k(  125) = (   0.0625000   0.3969283   0.0965952), wk =   0.0117188
        k(  126) = (   0.0625000   0.3969283  -0.1103945), wk =   0.0058594
        k(  127) = (   0.0625000   0.4690971   0.0000000), wk =   0.0058594
        k(  128) = (   0.0625000   0.4690971   0.0137993), wk =   0.0117188
        k(  129) = (   0.0625000   0.4690971   0.0275986), wk =   0.0117188
        k(  130) = (   0.0625000   0.4690971   0.0413979), wk =   0.0117188
        k(  131) = (   0.0625000   0.4690971   0.0551973), wk =   0.0117188
        k(  132) = (   0.0625000   0.4690971   0.0689966), wk =   0.0117188
        k(  133) = (   0.0625000   0.4690971   0.0827959), wk =   0.0117188
        k(  134) = (   0.0625000   0.4690971   0.0965952), wk =   0.0117188
        k(  135) = (   0.0625000   0.4690971  -0.1103945), wk =   0.0058594
        k(  136) = (   0.0625000   0.5412659   0.0000000), wk =   0.0058594
        k(  137) = (   0.0625000   0.5412659   0.0137993), wk =   0.0117188
        k(  138) = (   0.0625000   0.5412659   0.0275986), wk =   0.0117188
        k(  139) = (   0.0625000   0.5412659   0.0413979), wk =   0.0117188
        k(  140) = (   0.0625000   0.5412659   0.0551973), wk =   0.0117188
        k(  141) = (   0.0625000   0.5412659   0.0689966), wk =   0.0117188
        k(  142) = (   0.0625000   0.5412659   0.0827959), wk =   0.0117188
        k(  143) = (   0.0625000   0.5412659   0.0965952), wk =   0.0117188
        k(  144) = (   0.0625000   0.5412659  -0.1103945), wk =   0.0058594
        k(  145) = (   0.1250000   0.2165064   0.0000000), wk =   0.0029297
        k(  146) = (   0.1250000   0.2165064   0.0137993), wk =   0.0058594
        k(  147) = (   0.1250000   0.2165064   0.0275986), wk =   0.0058594
        k(  148) = (   0.1250000   0.2165064   0.0413979), wk =   0.0058594
        k(  149) = (   0.1250000   0.2165064   0.0551973), wk =   0.0058594
        k(  150) = (   0.1250000   0.2165064   0.0689966), wk =   0.0058594
        k(  151) = (   0.1250000   0.2165064   0.0827959), wk =   0.0058594
        k(  152) = (   0.1250000   0.2165064   0.0965952), wk =   0.0058594
        k(  153) = (   0.1250000   0.2165064  -0.1103945), wk =   0.0029297
        k(  154) = (   0.1250000   0.2886751   0.0000000), wk =   0.0058594
        k(  155) = (   0.1250000   0.2886751   0.0137993), wk =   0.0117188
        k(  156) = (   0.1250000   0.2886751   0.0275986), wk =   0.0117188
        k(  157) = (   0.1250000   0.2886751   0.0413979), wk =   0.0117188
        k(  158) = (   0.1250000   0.2886751   0.0551973), wk =   0.0117188
        k(  159) = (   0.1250000   0.2886751   0.0689966), wk =   0.0117188
        k(  160) = (   0.1250000   0.2886751   0.0827959), wk =   0.0117188
        k(  161) = (   0.1250000   0.2886751   0.0965952), wk =   0.0117188
        k(  162) = (   0.1250000   0.2886751  -0.1103945), wk =   0.0058594
        k(  163) = (   0.1250000   0.3608439   0.0000000), wk =   0.0058594
        k(  164) = (   0.1250000   0.3608439   0.0137993), wk =   0.0117188
        k(  165) = (   0.1250000   0.3608439   0.0275986), wk =   0.0117188
        k(  166) = (   0.1250000   0.3608439   0.0413979), wk =   0.0117188
        k(  167) = (   0.1250000   0.3608439   0.0551973), wk =   0.0117188
        k(  168) = (   0.1250000   0.3608439   0.0689966), wk =   0.0117188
        k(  169) = (   0.1250000   0.3608439   0.0827959), wk =   0.0117188
        k(  170) = (   0.1250000   0.3608439   0.0965952), wk =   0.0117188
        k(  171) = (   0.1250000   0.3608439  -0.1103945), wk =   0.0058594
        k(  172) = (   0.1250000   0.4330127   0.0000000), wk =   0.0058594
        k(  173) = (   0.1250000   0.4330127   0.0137993), wk =   0.0117188
        k(  174) = (   0.1250000   0.4330127   0.0275986), wk =   0.0117188
        k(  175) = (   0.1250000   0.4330127   0.0413979), wk =   0.0117188
        k(  176) = (   0.1250000   0.4330127   0.0551973), wk =   0.0117188
        k(  177) = (   0.1250000   0.4330127   0.0689966), wk =   0.0117188
        k(  178) = (   0.1250000   0.4330127   0.0827959), wk =   0.0117188
        k(  179) = (   0.1250000   0.4330127   0.0965952), wk =   0.0117188
        k(  180) = (   0.1250000   0.4330127  -0.1103945), wk =   0.0058594
        k(  181) = (   0.1250000   0.5051815   0.0000000), wk =   0.0058594
        k(  182) = (   0.1250000   0.5051815   0.0137993), wk =   0.0117188
        k(  183) = (   0.1250000   0.5051815   0.0275986), wk =   0.0117188
        k(  184) = (   0.1250000   0.5051815   0.0413979), wk =   0.0117188
        k(  185) = (   0.1250000   0.5051815   0.0551973), wk =   0.0117188
        k(  186) = (   0.1250000   0.5051815   0.0689966), wk =   0.0117188
        k(  187) = (   0.1250000   0.5051815   0.0827959), wk =   0.0117188
        k(  188) = (   0.1250000   0.5051815   0.0965952), wk =   0.0117188
        k(  189) = (   0.1250000   0.5051815  -0.1103945), wk =   0.0058594
        k(  190) = (   0.1250000   0.5773503   0.0000000), wk =   0.0029297
        k(  191) = (   0.1250000   0.5773503   0.0137993), wk =   0.0058594
        k(  192) = (   0.1250000   0.5773503   0.0275986), wk =   0.0058594
        k(  193) = (   0.1250000   0.5773503   0.0413979), wk =   0.0058594
        k(  194) = (   0.1250000   0.5773503   0.0551973), wk =   0.0058594
        k(  195) = (   0.1250000   0.5773503   0.0689966), wk =   0.0058594
        k(  196) = (   0.1250000   0.5773503   0.0827959), wk =   0.0058594
        k(  197) = (   0.1250000   0.5773503   0.0965952), wk =   0.0058594
        k(  198) = (   0.1250000   0.5773503  -0.1103945), wk =   0.0029297
        k(  199) = (   0.1875000   0.3247595   0.0000000), wk =   0.0029297
        k(  200) = (   0.1875000   0.3247595   0.0137993), wk =   0.0058594
        k(  201) = (   0.1875000   0.3247595   0.0275986), wk =   0.0058594
        k(  202) = (   0.1875000   0.3247595   0.0413979), wk =   0.0058594
        k(  203) = (   0.1875000   0.3247595   0.0551973), wk =   0.0058594
        k(  204) = (   0.1875000   0.3247595   0.0689966), wk =   0.0058594
        k(  205) = (   0.1875000   0.3247595   0.0827959), wk =   0.0058594
        k(  206) = (   0.1875000   0.3247595   0.0965952), wk =   0.0058594
        k(  207) = (   0.1875000   0.3247595  -0.1103945), wk =   0.0029297
        k(  208) = (   0.1875000   0.3969283   0.0000000), wk =   0.0058594
        k(  209) = (   0.1875000   0.3969283   0.0137993), wk =   0.0117188
        k(  210) = (   0.1875000   0.3969283   0.0275986), wk =   0.0117188
        k(  211) = (   0.1875000   0.3969283   0.0413979), wk =   0.0117188
        k(  212) = (   0.1875000   0.3969283   0.0551973), wk =   0.0117188
        k(  213) = (   0.1875000   0.3969283   0.0689966), wk =   0.0117188
        k(  214) = (   0.1875000   0.3969283   0.0827959), wk =   0.0117188
        k(  215) = (   0.1875000   0.3969283   0.0965952), wk =   0.0117188
        k(  216) = (   0.1875000   0.3969283  -0.1103945), wk =   0.0058594
        k(  217) = (   0.1875000   0.4690971   0.0000000), wk =   0.0058594
        k(  218) = (   0.1875000   0.4690971   0.0137993), wk =   0.0117188
        k(  219) = (   0.1875000   0.4690971   0.0275986), wk =   0.0117188
        k(  220) = (   0.1875000   0.4690971   0.0413979), wk =   0.0117188
        k(  221) = (   0.1875000   0.4690971   0.0551973), wk =   0.0117188
        k(  222) = (   0.1875000   0.4690971   0.0689966), wk =   0.0117188
        k(  223) = (   0.1875000   0.4690971   0.0827959), wk =   0.0117188
        k(  224) = (   0.1875000   0.4690971   0.0965952), wk =   0.0117188
        k(  225) = (   0.1875000   0.4690971  -0.1103945), wk =   0.0058594
        k(  226) = (   0.1875000   0.5412659   0.0000000), wk =   0.0058594
        k(  227) = (   0.1875000   0.5412659   0.0137993), wk =   0.0117188
        k(  228) = (   0.1875000   0.5412659   0.0275986), wk =   0.0117188
        k(  229) = (   0.1875000   0.5412659   0.0413979), wk =   0.0117188
        k(  230) = (   0.1875000   0.5412659   0.0551973), wk =   0.0117188
        k(  231) = (   0.1875000   0.5412659   0.0689966), wk =   0.0117188
        k(  232) = (   0.1875000   0.5412659   0.0827959), wk =   0.0117188
        k(  233) = (   0.1875000   0.5412659   0.0965952), wk =   0.0117188
        k(  234) = (   0.1875000   0.5412659  -0.1103945), wk =   0.0058594
        k(  235) = (   0.2500000   0.4330127   0.0000000), wk =   0.0029297
        k(  236) = (   0.2500000   0.4330127   0.0137993), wk =   0.0058594
        k(  237) = (   0.2500000   0.4330127   0.0275986), wk =   0.0058594
        k(  238) = (   0.2500000   0.4330127   0.0413979), wk =   0.0058594
        k(  239) = (   0.2500000   0.4330127   0.0551973), wk =   0.0058594
        k(  240) = (   0.2500000   0.4330127   0.0689966), wk =   0.0058594
        k(  241) = (   0.2500000   0.4330127   0.0827959), wk =   0.0058594
        k(  242) = (   0.2500000   0.4330127   0.0965952), wk =   0.0058594
        k(  243) = (   0.2500000   0.4330127  -0.1103945), wk =   0.0029297
        k(  244) = (   0.2500000   0.5051815   0.0000000), wk =   0.0058594
        k(  245) = (   0.2500000   0.5051815   0.0137993), wk =   0.0117188
        k(  246) = (   0.2500000   0.5051815   0.0275986), wk =   0.0117188
        k(  247) = (   0.2500000   0.5051815   0.0413979), wk =   0.0117188
        k(  248) = (   0.2500000   0.5051815   0.0551973), wk =   0.0117188
        k(  249) = (   0.2500000   0.5051815   0.0689966), wk =   0.0117188
        k(  250) = (   0.2500000   0.5051815   0.0827959), wk =   0.0117188
        k(  251) = (   0.2500000   0.5051815   0.0965952), wk =   0.0117188
        k(  252) = (   0.2500000   0.5051815  -0.1103945), wk =   0.0058594
        k(  253) = (   0.2500000   0.5773503   0.0000000), wk =   0.0029297
        k(  254) = (   0.2500000   0.5773503   0.0137993), wk =   0.0058594
        k(  255) = (   0.2500000   0.5773503   0.0275986), wk =   0.0058594
        k(  256) = (   0.2500000   0.5773503   0.0413979), wk =   0.0058594
        k(  257) = (   0.2500000   0.5773503   0.0551973), wk =   0.0058594
        k(  258) = (   0.2500000   0.5773503   0.0689966), wk =   0.0058594
        k(  259) = (   0.2500000   0.5773503   0.0827959), wk =   0.0058594
        k(  260) = (   0.2500000   0.5773503   0.0965952), wk =   0.0058594
        k(  261) = (   0.2500000   0.5773503  -0.1103945), wk =   0.0029297
        k(  262) = (   0.3125000   0.5412659   0.0000000), wk =   0.0029297
        k(  263) = (   0.3125000   0.5412659   0.0137993), wk =   0.0058594
        k(  264) = (   0.3125000   0.5412659   0.0275986), wk =   0.0058594
        k(  265) = (   0.3125000   0.5412659   0.0413979), wk =   0.0058594
        k(  266) = (   0.3125000   0.5412659   0.0551973), wk =   0.0058594
        k(  267) = (   0.3125000   0.5412659   0.0689966), wk =   0.0058594
        k(  268) = (   0.3125000   0.5412659   0.0827959), wk =   0.0058594
        k(  269) = (   0.3125000   0.5412659   0.0965952), wk =   0.0058594
        k(  270) = (   0.3125000   0.5412659  -0.1103945), wk =   0.0029297

                       cryst. coord.
        k(    1) = (   0.0000000   0.0000000   0.0000000), wk =   0.0004883
        k(    2) = (   0.0000000   0.0000000   0.0625000), wk =   0.0009766
        k(    3) = (   0.0000000   0.0000000   0.1250000), wk =   0.0009766
        k(    4) = (   0.0000000   0.0000000   0.1875000), wk =   0.0009766
        k(    5) = (   0.0000000   0.0000000   0.2500000), wk =   0.0009766
        k(    6) = (   0.0000000   0.0000000   0.3125000), wk =   0.0009766
        k(    7) = (   0.0000000   0.0000000   0.3750000), wk =   0.0009766
        k(    8) = (   0.0000000   0.0000000   0.4375000), wk =   0.0009766
        k(    9) = (   0.0000000   0.0000000  -0.5000000), wk =   0.0004883
        k(   10) = (   0.0000000   0.0625000   0.0000000), wk =   0.0029297
        k(   11) = (   0.0000000   0.0625000   0.0625000), wk =   0.0058594
        k(   12) = (   0.0000000   0.0625000   0.1250000), wk =   0.0058594
        k(   13) = (   0.0000000   0.0625000   0.1875000), wk =   0.0058594
        k(   14) = (   0.0000000   0.0625000   0.2500000), wk =   0.0058594
        k(   15) = (   0.0000000   0.0625000   0.3125000), wk =   0.0058594
        k(   16) = (   0.0000000   0.0625000   0.3750000), wk =   0.0058594
        k(   17) = (   0.0000000   0.0625000   0.4375000), wk =   0.0058594
        k(   18) = (   0.0000000   0.0625000  -0.5000000), wk =   0.0029297
        k(   19) = (   0.0000000   0.1250000   0.0000000), wk =   0.0029297
        k(   20) = (   0.0000000   0.1250000   0.0625000), wk =   0.0058594
        k(   21) = (   0.0000000   0.1250000   0.1250000), wk =   0.0058594
        k(   22) = (   0.0000000   0.1250000   0.1875000), wk =   0.0058594
        k(   23) = (   0.0000000   0.1250000   0.2500000), wk =   0.0058594
        k(   24) = (   0.0000000   0.1250000   0.3125000), wk =   0.0058594
        k(   25) = (   0.0000000   0.1250000   0.3750000), wk =   0.0058594
        k(   26) = (   0.0000000   0.1250000   0.4375000), wk =   0.0058594
        k(   27) = (   0.0000000   0.1250000  -0.5000000), wk =   0.0029297
        k(   28) = (   0.0000000   0.1875000   0.0000000), wk =   0.0029297
        k(   29) = (   0.0000000   0.1875000   0.0625000), wk =   0.0058594
        k(   30) = (   0.0000000   0.1875000   0.1250000), wk =   0.0058594
        k(   31) = (   0.0000000   0.1875000   0.1875000), wk =   0.0058594
        k(   32) = (   0.0000000   0.1875000   0.2500000), wk =   0.0058594
        k(   33) = (   0.0000000   0.1875000   0.3125000), wk =   0.0058594
        k(   34) = (   0.0000000   0.1875000   0.3750000), wk =   0.0058594
        k(   35) = (   0.0000000   0.1875000   0.4375000), wk =   0.0058594
        k(   36) = (   0.0000000   0.1875000  -0.5000000), wk =   0.0029297
        k(   37) = (   0.0000000   0.2500000   0.0000000), wk =   0.0029297
        k(   38) = (   0.0000000   0.2500000   0.0625000), wk =   0.0058594
        k(   39) = (   0.0000000   0.2500000   0.1250000), wk =   0.0058594
        k(   40) = (   0.0000000   0.2500000   0.1875000), wk =   0.0058594
        k(   41) = (   0.0000000   0.2500000   0.2500000), wk =   0.0058594
        k(   42) = (   0.0000000   0.2500000   0.3125000), wk =   0.0058594
        k(   43) = (   0.0000000   0.2500000   0.3750000), wk =   0.0058594
        k(   44) = (   0.0000000   0.2500000   0.4375000), wk =   0.0058594
        k(   45) = (   0.0000000   0.2500000  -0.5000000), wk =   0.0029297
        k(   46) = (   0.0000000   0.3125000   0.0000000), wk =   0.0029297
        k(   47) = (   0.0000000   0.3125000   0.0625000), wk =   0.0058594
        k(   48) = (   0.0000000   0.3125000   0.1250000), wk =   0.0058594
        k(   49) = (   0.0000000   0.3125000   0.1875000), wk =   0.0058594
        k(   50) = (   0.0000000   0.3125000   0.2500000), wk =   0.0058594
        k(   51) = (   0.0000000   0.3125000   0.3125000), wk =   0.0058594
        k(   52) = (   0.0000000   0.3125000   0.3750000), wk =   0.0058594
        k(   53) = (   0.0000000   0.3125000   0.4375000), wk =   0.0058594
        k(   54) = (   0.0000000   0.3125000  -0.5000000), wk =   0.0029297
        k(   55) = (   0.0000000   0.3750000   0.0000000), wk =   0.0029297
        k(   56) = (   0.0000000   0.3750000   0.0625000), wk =   0.0058594
        k(   57) = (   0.0000000   0.3750000   0.1250000), wk =   0.0058594
        k(   58) = (   0.0000000   0.3750000   0.1875000), wk =   0.0058594
        k(   59) = (   0.0000000   0.3750000   0.2500000), wk =   0.0058594
        k(   60) = (   0.0000000   0.3750000   0.3125000), wk =   0.0058594
        k(   61) = (   0.0000000   0.3750000   0.3750000), wk =   0.0058594
        k(   62) = (   0.0000000   0.3750000   0.4375000), wk =   0.0058594
        k(   63) = (   0.0000000   0.3750000  -0.5000000), wk =   0.0029297
        k(   64) = (   0.0000000   0.4375000   0.0000000), wk =   0.0029297
        k(   65) = (   0.0000000   0.4375000   0.0625000), wk =   0.0058594
        k(   66) = (   0.0000000   0.4375000   0.1250000), wk =   0.0058594
        k(   67) = (   0.0000000   0.4375000   0.1875000), wk =   0.0058594
        k(   68) = (   0.0000000   0.4375000   0.2500000), wk =   0.0058594
        k(   69) = (   0.0000000   0.4375000   0.3125000), wk =   0.0058594
        k(   70) = (   0.0000000   0.4375000   0.3750000), wk =   0.0058594
        k(   71) = (   0.0000000   0.4375000   0.4375000), wk =   0.0058594
        k(   72) = (   0.0000000   0.4375000  -0.5000000), wk =   0.0029297
        k(   73) = (   0.0000000  -0.5000000   0.0000000), wk =   0.0014648
        k(   74) = (   0.0000000  -0.5000000   0.0625000), wk =   0.0029297
        k(   75) = (   0.0000000  -0.5000000   0.1250000), wk =   0.0029297
        k(   76) = (   0.0000000  -0.5000000   0.1875000), wk =   0.0029297
        k(   77) = (   0.0000000  -0.5000000   0.2500000), wk =   0.0029297
        k(   78) = (   0.0000000  -0.5000000   0.3125000), wk =   0.0029297
        k(   79) = (   0.0000000  -0.5000000   0.3750000), wk =   0.0029297
        k(   80) = (   0.0000000  -0.5000000   0.4375000), wk =   0.0029297
        k(   81) = (   0.0000000  -0.5000000  -0.5000000), wk =   0.0014648
        k(   82) = (   0.0625000   0.0625000   0.0000000), wk =   0.0029297
        k(   83) = (   0.0625000   0.0625000   0.0625000), wk =   0.0058594
        k(   84) = (   0.0625000   0.0625000   0.1250000), wk =   0.0058594
        k(   85) = (   0.0625000   0.0625000   0.1875000), wk =   0.0058594
        k(   86) = (   0.0625000   0.0625000   0.2500000), wk =   0.0058594
        k(   87) = (   0.0625000   0.0625000   0.3125000), wk =   0.0058594
        k(   88) = (   0.0625000   0.0625000   0.3750000), wk =   0.0058594
        k(   89) = (   0.0625000   0.0625000   0.4375000), wk =   0.0058594
        k(   90) = (   0.0625000   0.0625000  -0.5000000), wk =   0.0029297
        k(   91) = (   0.0625000   0.1250000   0.0000000), wk =   0.0058594
        k(   92) = (   0.0625000   0.1250000   0.0625000), wk =   0.0117188
        k(   93) = (   0.0625000   0.1250000   0.1250000), wk =   0.0117188
        k(   94) = (   0.0625000   0.1250000   0.1875000), wk =   0.0117188
        k(   95) = (   0.0625000   0.1250000   0.2500000), wk =   0.0117188
        k(   96) = (   0.0625000   0.1250000   0.3125000), wk =   0.0117188
        k(   97) = (   0.0625000   0.1250000   0.3750000), wk =   0.0117188
        k(   98) = (   0.0625000   0.1250000   0.4375000), wk =   0.0117188
        k(   99) = (   0.0625000   0.1250000  -0.5000000), wk =   0.0058594
        k(  100) = (   0.0625000   0.1875000   0.0000000), wk =   0.0058594
        k(  101) = (   0.0625000   0.1875000   0.0625000), wk =   0.0117188
        k(  102) = (   0.0625000   0.1875000   0.1250000), wk =   0.0117188
        k(  103) = (   0.0625000   0.1875000   0.1875000), wk =   0.0117188
        k(  104) = (   0.0625000   0.1875000   0.2500000), wk =   0.0117188
        k(  105) = (   0.0625000   0.1875000   0.3125000), wk =   0.0117188
        k(  106) = (   0.0625000   0.1875000   0.3750000), wk =   0.0117188
        k(  107) = (   0.0625000   0.1875000   0.4375000), wk =   0.0117188
        k(  108) = (   0.0625000   0.1875000  -0.5000000), wk =   0.0058594
        k(  109) = (   0.0625000   0.2500000   0.0000000), wk =   0.0058594
        k(  110) = (   0.0625000   0.2500000   0.0625000), wk =   0.0117188
        k(  111) = (   0.0625000   0.2500000   0.1250000), wk =   0.0117188
        k(  112) = (   0.0625000   0.2500000   0.1875000), wk =   0.0117188
        k(  113) = (   0.0625000   0.2500000   0.2500000), wk =   0.0117188
        k(  114) = (   0.0625000   0.2500000   0.3125000), wk =   0.0117188
        k(  115) = (   0.0625000   0.2500000   0.3750000), wk =   0.0117188
        k(  116) = (   0.0625000   0.2500000   0.4375000), wk =   0.0117188
        k(  117) = (   0.0625000   0.2500000  -0.5000000), wk =   0.0058594
        k(  118) = (   0.0625000   0.3125000   0.0000000), wk =   0.0058594
        k(  119) = (   0.0625000   0.3125000   0.0625000), wk =   0.0117188
        k(  120) = (   0.0625000   0.3125000   0.1250000), wk =   0.0117188
        k(  121) = (   0.0625000   0.3125000   0.1875000), wk =   0.0117188
        k(  122) = (   0.0625000   0.3125000   0.2500000), wk =   0.0117188
        k(  123) = (   0.0625000   0.3125000   0.3125000), wk =   0.0117188
        k(  124) = (   0.0625000   0.3125000   0.3750000), wk =   0.0117188
        k(  125) = (   0.0625000   0.3125000   0.4375000), wk =   0.0117188
        k(  126) = (   0.0625000   0.3125000  -0.5000000), wk =   0.0058594
        k(  127) = (   0.0625000   0.3750000   0.0000000), wk =   0.0058594
        k(  128) = (   0.0625000   0.3750000   0.0625000), wk =   0.0117188
        k(  129) = (   0.0625000   0.3750000   0.1250000), wk =   0.0117188
        k(  130) = (   0.0625000   0.3750000   0.1875000), wk =   0.0117188
        k(  131) = (   0.0625000   0.3750000   0.2500000), wk =   0.0117188
        k(  132) = (   0.0625000   0.3750000   0.3125000), wk =   0.0117188
        k(  133) = (   0.0625000   0.3750000   0.3750000), wk =   0.0117188
        k(  134) = (   0.0625000   0.3750000   0.4375000), wk =   0.0117188
        k(  135) = (   0.0625000   0.3750000  -0.5000000), wk =   0.0058594
        k(  136) = (   0.0625000   0.4375000   0.0000000), wk =   0.0058594
        k(  137) = (   0.0625000   0.4375000   0.0625000), wk =   0.0117188
        k(  138) = (   0.0625000   0.4375000   0.1250000), wk =   0.0117188
        k(  139) = (   0.0625000   0.4375000   0.1875000), wk =   0.0117188
        k(  140) = (   0.0625000   0.4375000   0.2500000), wk =   0.0117188
        k(  141) = (   0.0625000   0.4375000   0.3125000), wk =   0.0117188
        k(  142) = (   0.0625000   0.4375000   0.3750000), wk =   0.0117188
        k(  143) = (   0.0625000   0.4375000   0.4375000), wk =   0.0117188
        k(  144) = (   0.0625000   0.4375000  -0.5000000), wk =   0.0058594
        k(  145) = (   0.1250000   0.1250000   0.0000000), wk =   0.0029297
        k(  146) = (   0.1250000   0.1250000   0.0625000), wk =   0.0058594
        k(  147) = (   0.1250000   0.1250000   0.1250000), wk =   0.0058594
        k(  148) = (   0.1250000   0.1250000   0.1875000), wk =   0.0058594
        k(  149) = (   0.1250000   0.1250000   0.2500000), wk =   0.0058594
        k(  150) = (   0.1250000   0.1250000   0.3125000), wk =   0.0058594
        k(  151) = (   0.1250000   0.1250000   0.3750000), wk =   0.0058594
        k(  152) = (   0.1250000   0.1250000   0.4375000), wk =   0.0058594
        k(  153) = (   0.1250000   0.1250000  -0.5000000), wk =   0.0029297
        k(  154) = (   0.1250000   0.1875000   0.0000000), wk =   0.0058594
        k(  155) = (   0.1250000   0.1875000   0.0625000), wk =   0.0117188
        k(  156) = (   0.1250000   0.1875000   0.1250000), wk =   0.0117188
        k(  157) = (   0.1250000   0.1875000   0.1875000), wk =   0.0117188
        k(  158) = (   0.1250000   0.1875000   0.2500000), wk =   0.0117188
        k(  159) = (   0.1250000   0.1875000   0.3125000), wk =   0.0117188
        k(  160) = (   0.1250000   0.1875000   0.3750000), wk =   0.0117188
        k(  161) = (   0.1250000   0.1875000   0.4375000), wk =   0.0117188
        k(  162) = (   0.1250000   0.1875000  -0.5000000), wk =   0.0058594
        k(  163) = (   0.1250000   0.2500000   0.0000000), wk =   0.0058594
        k(  164) = (   0.1250000   0.2500000   0.0625000), wk =   0.0117188
        k(  165) = (   0.1250000   0.2500000   0.1250000), wk =   0.0117188
        k(  166) = (   0.1250000   0.2500000   0.1875000), wk =   0.0117188
        k(  167) = (   0.1250000   0.2500000   0.2500000), wk =   0.0117188
        k(  168) = (   0.1250000   0.2500000   0.3125000), wk =   0.0117188
        k(  169) = (   0.1250000   0.2500000   0.3750000), wk =   0.0117188
        k(  170) = (   0.1250000   0.2500000   0.4375000), wk =   0.0117188
        k(  171) = (   0.1250000   0.2500000  -0.5000000), wk =   0.0058594
        k(  172) = (   0.1250000   0.3125000   0.0000000), wk =   0.0058594
        k(  173) = (   0.1250000   0.3125000   0.0625000), wk =   0.0117188
        k(  174) = (   0.1250000   0.3125000   0.1250000), wk =   0.0117188
        k(  175) = (   0.1250000   0.3125000   0.1875000), wk =   0.0117188
        k(  176) = (   0.1250000   0.3125000   0.2500000), wk =   0.0117188
        k(  177) = (   0.1250000   0.3125000   0.3125000), wk =   0.0117188
        k(  178) = (   0.1250000   0.3125000   0.3750000), wk =   0.0117188
        k(  179) = (   0.1250000   0.3125000   0.4375000), wk =   0.0117188
        k(  180) = (   0.1250000   0.3125000  -0.5000000), wk =   0.0058594
        k(  181) = (   0.1250000   0.3750000   0.0000000), wk =   0.0058594
        k(  182) = (   0.1250000   0.3750000   0.0625000), wk =   0.0117188
        k(  183) = (   0.1250000   0.3750000   0.1250000), wk =   0.0117188
        k(  184) = (   0.1250000   0.3750000   0.1875000), wk =   0.0117188
        k(  185) = (   0.1250000   0.3750000   0.2500000), wk =   0.0117188
        k(  186) = (   0.1250000   0.3750000   0.3125000), wk =   0.0117188
        k(  187) = (   0.1250000   0.3750000   0.3750000), wk =   0.0117188
        k(  188) = (   0.1250000   0.3750000   0.4375000), wk =   0.0117188
        k(  189) = (   0.1250000   0.3750000  -0.5000000), wk =   0.0058594
        k(  190) = (   0.1250000   0.4375000   0.0000000), wk =   0.0029297
        k(  191) = (   0.1250000   0.4375000   0.0625000), wk =   0.0058594
        k(  192) = (   0.1250000   0.4375000   0.1250000), wk =   0.0058594
        k(  193) = (   0.1250000   0.4375000   0.1875000), wk =   0.0058594
        k(  194) = (   0.1250000   0.4375000   0.2500000), wk =   0.0058594
        k(  195) = (   0.1250000   0.4375000   0.3125000), wk =   0.0058594
        k(  196) = (   0.1250000   0.4375000   0.3750000), wk =   0.0058594
        k(  197) = (   0.1250000   0.4375000   0.4375000), wk =   0.0058594
        k(  198) = (   0.1250000   0.4375000  -0.5000000), wk =   0.0029297
        k(  199) = (   0.1875000   0.1875000   0.0000000), wk =   0.0029297
        k(  200) = (   0.1875000   0.1875000   0.0625000), wk =   0.0058594
        k(  201) = (   0.1875000   0.1875000   0.1250000), wk =   0.0058594
        k(  202) = (   0.1875000   0.1875000   0.1875000), wk =   0.0058594
        k(  203) = (   0.1875000   0.1875000   0.2500000), wk =   0.0058594
        k(  204) = (   0.1875000   0.1875000   0.3125000), wk =   0.0058594
        k(  205) = (   0.1875000   0.1875000   0.3750000), wk =   0.0058594
        k(  206) = (   0.1875000   0.1875000   0.4375000), wk =   0.0058594
        k(  207) = (   0.1875000   0.1875000  -0.5000000), wk =   0.0029297
        k(  208) = (   0.1875000   0.2500000   0.0000000), wk =   0.0058594
        k(  209) = (   0.1875000   0.2500000   0.0625000), wk =   0.0117188
        k(  210) = (   0.1875000   0.2500000   0.1250000), wk =   0.0117188
        k(  211) = (   0.1875000   0.2500000   0.1875000), wk =   0.0117188
        k(  212) = (   0.1875000   0.2500000   0.2500000), wk =   0.0117188
        k(  213) = (   0.1875000   0.2500000   0.3125000), wk =   0.0117188
        k(  214) = (   0.1875000   0.2500000   0.3750000), wk =   0.0117188
        k(  215) = (   0.1875000   0.2500000   0.4375000), wk =   0.0117188
        k(  216) = (   0.1875000   0.2500000  -0.5000000), wk =   0.0058594
        k(  217) = (   0.1875000   0.3125000   0.0000000), wk =   0.0058594
        k(  218) = (   0.1875000   0.3125000   0.0625000), wk =   0.0117188
        k(  219) = (   0.1875000   0.3125000   0.1250000), wk =   0.0117188
        k(  220) = (   0.1875000   0.3125000   0.1875000), wk =   0.0117188
        k(  221) = (   0.1875000   0.3125000   0.2500000), wk =   0.0117188
        k(  222) = (   0.1875000   0.3125000   0.3125000), wk =   0.0117188
        k(  223) = (   0.1875000   0.3125000   0.3750000), wk =   0.0117188
        k(  224) = (   0.1875000   0.3125000   0.4375000), wk =   0.0117188
        k(  225) = (   0.1875000   0.3125000  -0.5000000), wk =   0.0058594
        k(  226) = (   0.1875000   0.3750000   0.0000000), wk =   0.0058594
        k(  227) = (   0.1875000   0.3750000   0.0625000), wk =   0.0117188
        k(  228) = (   0.1875000   0.3750000   0.1250000), wk =   0.0117188
        k(  229) = (   0.1875000   0.3750000   0.1875000), wk =   0.0117188
        k(  230) = (   0.1875000   0.3750000   0.2500000), wk =   0.0117188
        k(  231) = (   0.1875000   0.3750000   0.3125000), wk =   0.0117188
        k(  232) = (   0.1875000   0.3750000   0.3750000), wk =   0.0117188
        k(  233) = (   0.1875000   0.3750000   0.4375000), wk =   0.0117188
        k(  234) = (   0.1875000   0.3750000  -0.5000000), wk =   0.0058594
        k(  235) = (   0.2500000   0.2500000   0.0000000), wk =   0.0029297
        k(  236) = (   0.2500000   0.2500000   0.0625000), wk =   0.0058594
        k(  237) = (   0.2500000   0.2500000   0.1250000), wk =   0.0058594
        k(  238) = (   0.2500000   0.2500000   0.1875000), wk =   0.0058594
        k(  239) = (   0.2500000   0.2500000   0.2500000), wk =   0.0058594
        k(  240) = (   0.2500000   0.2500000   0.3125000), wk =   0.0058594
        k(  241) = (   0.2500000   0.2500000   0.3750000), wk =   0.0058594
        k(  242) = (   0.2500000   0.2500000   0.4375000), wk =   0.0058594
        k(  243) = (   0.2500000   0.2500000  -0.5000000), wk =   0.0029297
        k(  244) = (   0.2500000   0.3125000   0.0000000), wk =   0.0058594
        k(  245) = (   0.2500000   0.3125000   0.0625000), wk =   0.0117188
        k(  246) = (   0.2500000   0.3125000   0.1250000), wk =   0.0117188
        k(  247) = (   0.2500000   0.3125000   0.1875000), wk =   0.0117188
        k(  248) = (   0.2500000   0.3125000   0.2500000), wk =   0.0117188
        k(  249) = (   0.2500000   0.3125000   0.3125000), wk =   0.0117188
        k(  250) = (   0.2500000   0.3125000   0.3750000), wk =   0.0117188
        k(  251) = (   0.2500000   0.3125000   0.4375000), wk =   0.0117188
        k(  252) = (   0.2500000   0.3125000  -0.5000000), wk =   0.0058594
        k(  253) = (   0.2500000   0.3750000   0.0000000), wk =   0.0029297
        k(  254) = (   0.2500000   0.3750000   0.0625000), wk =   0.0058594
        k(  255) = (   0.2500000   0.3750000   0.1250000), wk =   0.0058594
        k(  256) = (   0.2500000   0.3750000   0.1875000), wk =   0.0058594
        k(  257) = (   0.2500000   0.3750000   0.2500000), wk =   0.0058594
        k(  258) = (   0.2500000   0.3750000   0.3125000), wk =   0.0058594
        k(  259) = (   0.2500000   0.3750000   0.3750000), wk =   0.0058594
        k(  260) = (   0.2500000   0.3750000   0.4375000), wk =   0.0058594
        k(  261) = (   0.2500000   0.3750000  -0.5000000), wk =   0.0029297
        k(  262) = (   0.3125000   0.3125000   0.0000000), wk =   0.0029297
        k(  263) = (   0.3125000   0.3125000   0.0625000), wk =   0.0058594
        k(  264) = (   0.3125000   0.3125000   0.1250000), wk =   0.0058594
        k(  265) = (   0.3125000   0.3125000   0.1875000), wk =   0.0058594
        k(  266) = (   0.3125000   0.3125000   0.2500000), wk =   0.0058594
        k(  267) = (   0.3125000   0.3125000   0.3125000), wk =   0.0058594
        k(  268) = (   0.3125000   0.3125000   0.3750000), wk =   0.0058594
        k(  269) = (   0.3125000   0.3125000   0.4375000), wk =   0.0058594
        k(  270) = (   0.3125000   0.3125000  -0.5000000), wk =   0.0029297

     Dense  grid:   170417 G-vectors     FFT dimensions: (  45,  45, 200)

     Smooth grid:    46575 G-vectors     FFT dimensions: (  30,  30, 144)

     Dynamical RAM for                 wfc:       1.02 MB

     Dynamical RAM for     wfc (w. buffer):     276.76 MB

     Dynamical RAM for           str. fact:       1.30 MB

     Dynamical RAM for           local pot:       0.00 MB

     Dynamical RAM for          nlocal pot:       2.40 MB

     Dynamical RAM for                qrad:       3.50 MB

     Dynamical RAM for          rho,v,vnew:       8.53 MB

     Dynamical RAM for               rhoin:       2.84 MB

     Dynamical RAM for            rho*nmix:      20.80 MB

     Dynamical RAM for           G-vectors:       2.53 MB

     Dynamical RAM for          h,s,v(r/c):       0.10 MB

     Dynamical RAM for          <psi|beta>:       0.08 MB

     Dynamical RAM for                 psi:       2.04 MB

     Dynamical RAM for                hpsi:       2.04 MB

     Dynamical RAM for                spsi:       2.04 MB

     Dynamical RAM for      wfcinit/wfcrot:       2.84 MB

     Dynamical RAM for           addusdens:     123.50 MB

     Estimated static dynamical RAM per process >     324.48 MB

     Estimated max dynamical RAM per process >     447.97 MB

     Estimated total dynamical RAM >       1.75 GB

     Initial potential from superposition of free atoms

     starting charge   91.99858, renormalised to   92.00000
     Starting wfcs are   62 randomized atomic wfcs
     Checking if some PAW data can be deallocated... 
       PAW data deallocated on    3 nodes for type:  1
       PAW data deallocated on    1 nodes for type:  2

     total cpu time spent up to now is       68.4 secs

     Self-consistent Calculation

     iteration #  1     ecut=    50.00 Ry     beta= 0.60
     Davidson diagonalization with overlap
     ethr =  1.00E-02,  avg # of iterations =  2.0

     Threshold (ethr) on eigenvalues was too large:
     Diagonalizing with lowered threshold

     Davidson diagonalization with overlap
     ethr =  1.17E-04,  avg # of iterations =  3.3

     total cpu time spent up to now is      518.8 secs

     total energy              =   -3127.95546504 Ry
     estimated scf accuracy    <       0.13953936 Ry

     iteration #  2     ecut=    50.00 Ry     beta= 0.60
     Davidson diagonalization with overlap
     ethr =  1.52E-04,  avg # of iterations =  2.5

     total cpu time spent up to now is      758.6 secs

     total energy              =   -3127.96632306 Ry
     estimated scf accuracy    <       0.06751409 Ry

     iteration #  3     ecut=    50.00 Ry     beta= 0.60
     Davidson diagonalization with overlap
     ethr =  7.34E-05,  avg # of iterations =  5.1

     total cpu time spent up to now is      997.2 secs

     total energy              =   -3127.97448695 Ry
     estimated scf accuracy    <       0.07592253 Ry

     iteration #  4     ecut=    50.00 Ry     beta= 0.60
     Davidson diagonalization with overlap
     ethr =  7.34E-05,  avg # of iterations =  3.5

     negative rho (up, down):  2.205E-04 0.000E+00

     total cpu time spent up to now is     1180.5 secs

     total energy              =   -3127.98770625 Ry
     estimated scf accuracy    <       0.00084423 Ry

     iteration #  5     ecut=    50.00 Ry     beta= 0.60
     Davidson diagonalization with overlap
     ethr =  9.18E-07,  avg # of iterations =  5.3

     negative rho (up, down):  2.650E-04 0.000E+00

     total cpu time spent up to now is     1411.0 secs

     total energy              =   -3127.98751039 Ry
     estimated scf accuracy    <       0.00333706 Ry

     iteration #  6     ecut=    50.00 Ry     beta= 0.60
     Davidson diagonalization with overlap
     ethr =  9.18E-07,  avg # of iterations =  5.5

     negative rho (up, down):  2.734E-04 0.000E+00

     total cpu time spent up to now is     1618.7 secs

     total energy              =   -3127.98806650 Ry
     estimated scf accuracy    <       0.00006979 Ry

     iteration #  7     ecut=    50.00 Ry     beta= 0.60
     Davidson diagonalization with overlap
     ethr =  7.59E-08,  avg # of iterations =  2.6

     negative rho (up, down):  2.750E-04 0.000E+00

     total cpu time spent up to now is     1796.8 secs

     total energy              =   -3127.98805863 Ry
     estimated scf accuracy    <       0.00004305 Ry

     iteration #  8     ecut=    50.00 Ry     beta= 0.60
     Davidson diagonalization with overlap
     ethr =  4.68E-08,  avg # of iterations =  4.6

     negative rho (up, down):  2.766E-04 0.000E+00

     total cpu time spent up to now is     1988.4 secs

     total energy              =   -3127.98806760 Ry
     estimated scf accuracy    <       0.00000118 Ry

     iteration #  9     ecut=    50.00 Ry     beta= 0.60
     Davidson diagonalization with overlap
     ethr =  1.28E-09,  avg # of iterations =  5.4

     negative rho (up, down):  2.778E-04 0.000E+00

     total cpu time spent up to now is     2186.6 secs

     total energy              =   -3127.98806805 Ry
     estimated scf accuracy    <       0.00000010 Ry

     iteration # 10     ecut=    50.00 Ry     beta= 0.60
     Davidson diagonalization with overlap
     ethr =  1.13E-10,  avg # of iterations =  5.2

     negative rho (up, down):  2.789E-04 0.000E+00

     total cpu time spent up to now is     2397.5 secs

     total energy              =   -3127.98806808 Ry
     estimated scf accuracy    <       0.00000007 Ry

     iteration # 11     ecut=    50.00 Ry     beta= 0.60
     Davidson diagonalization with overlap
     ethr =  7.89E-11,  avg # of iterations =  2.8

     negative rho (up, down):  2.793E-04 0.000E+00

     total cpu time spent up to now is     2575.9 secs

     End of self-consistent calculation

          k = 0.0000 0.0000 0.0000 (  5771 PWs)   bands (ev):

   -64.6287 -64.6284 -38.0462 -38.0462 -38.0424 -38.0424 -38.0397 -38.0397
   -38.0362 -38.0362 -38.0137 -38.0137 -38.0102 -38.0102 -38.0069 -38.0069
   -38.0036 -38.0036 -37.9995 -37.9959 -37.9928 -37.9894 -28.8342 -28.8340
   -28.7318 -28.7318 -28.7316 -28.7316  -5.1831  -5.1528  -3.9798  -3.9255
     3.2628   3.5220   6.9332   7.1704   7.1705   7.1720   7.1720   7.8028
     8.2567   8.2568   8.2618   8.2619   8.9533   9.4392

     occupation numbers 
     1.0000   1.0000   1.0000   1.0000   1.0000   1.0000   1.0000   1.0000
     1.0000   1.0000   1.0000   1.0000   1.0000   1.0000   1.0000   1.0000
     1.0000   1.0000   1.0000   1.0000   1.0000   1.0000   1.0000   1.0000
     1.0000   1.0000   1.0000   1.0000   1.0000   1.0000   1.0000   1.0000
     1.0000   1.0000   1.0000   1.0000   1.0000   1.0000   1.0000   1.0000
     1.0000   1.0000   1.0000   1.0000   1.0000   1.0000

          k = 0.0000 0.0000 0.0138 (  5782 PWs)   bands (ev):

   -64.6287 -64.6284 -38.0463 -38.0463 -38.0425 -38.0425 -38.0397 -38.0397
   -38.0362 -38.0362 -38.0139 -38.0138 -38.0103 -38.0103 -38.0070 -38.0070
   -38.0037 -38.0037 -37.9996 -37.9959 -37.9928 -37.9895 -28.8343 -28.8341
   -28.7318 -28.7318 -28.7316 -28.7316  -5.1828  -5.1531  -3.9793  -3.9260
     3.2651   3.5192   6.9401   7.1705   7.1705   7.1720   7.1720   7.7910
     8.2568   8.2569   8.2618   8.2619   8.9617   9.4362

     occupation numbers 
     1.0000   1.0000   1.0000   1.0000   1.0000   1.0000   1.0000   1.0000
     1.0000   1.0000   1.0000   1.0000   1.0000   1.0000   1.0000   1.0000
     1.0000   1.0000   1.0000   1.0000   1.0000   1.0000   1.0000   1.0000
     1.0000   1.0000   1.0000   1.0000   1.0000   1.0000   1.0000   1.0000
     1.0000   1.0000   1.0000   1.0000   1.0000   1.0000   1.0000   1.0000
     1.0000   1.0000   1.0000   1.0000   1.0000   1.0000

          k = 0.0000 0.0000 0.0276 (  5806 PWs)   bands (ev):

   -64.6287 -64.6284 -38.0463 -38.0463 -38.0425 -38.0425 -38.0397 -38.0397
   -38.0362 -38.0362 -38.0141 -38.0141 -38.0105 -38.0105 -38.0072 -38.0072
   -38.0039 -38.0039 -37.9998 -37.9962 -37.9932 -37.9898 -28.8344 -28.8342
   -28.7319 -28.7318 -28.7316 -28.7316  -5.1820  -5.1540  -3.9777  -3.9276
     3.2717   3.5110   6.9607   7.1705   7.1705   7.1720   7.1720   7.7571
     8.2569   8.2570   8.2616   8.2617   8.9854   9.4275

     occupation numbers 
     1.0000   1.0000   1.0000   1.0000   1.0000   1.0000   1.0000   1.0000
     1.0000   1.0000   1.0000   1.0000   1.0000   1.0000   1.0000   1.0000
     1.0000   1.0000   1.0000   1.0000   1.0000   1.0000   1.0000   1.0000
     1.0000   1.0000   1.0000   1.0000   1.0000   1.0000   1.0000   1.0000
     1.0000   1.0000   1.0000   1.0000   1.0000   1.0000   1.0000   1.0000
     1.0000   1.0000   1.0000   1.0000   1.0000   1.0000

          k = 0.0000 0.0000 0.0414 (  5806 PWs)   bands (ev):

   -64.6287 -64.6284 -38.0463 -38.0463 -38.0426 -38.0426 -38.0398 -38.0398
   -38.0363 -38.0363 -38.0140 -38.0140 -38.0104 -38.0104 -38.0072 -38.0072
   -38.0039 -38.0039 -37.9999 -37.9963 -37.9932 -37.9899 -28.8343 -28.8342
   -28.7319 -28.7318 -28.7317 -28.7316  -5.1806  -5.1555  -3.9752  -3.9300
     3.2827   3.4978   6.9942   7.1706   7.1706   7.1719   7.1719   7.7046
     8.2571   8.2573   8.2614   8.2615   9.0213   9.4129

     occupation numbers 
     1.0000   1.0000   1.0000   1.0000   1.0000   1.0000   1.0000   1.0000
     1.0000   1.0000   1.0000   1.0000   1.0000   1.0000   1.0000   1.0000
     1.0000   1.0000   1.0000   1.0000   1.0000   1.0000   1.0000   1.0000
     1.0000   1.0000   1.0000   1.0000   1.0000   1.0000   1.0000   1.0000
     1.0000   1.0000   1.0000   1.0000   1.0000   1.0000   1.0000   1.0000
     1.0000   1.0000   1.0000   1.0000   1.0000   1.0000

          k = 0.0000 0.0000 0.0552 (  5806 PWs)   bands (ev):

   -64.6287 -64.6284 -38.0463 -38.0463 -38.0426 -38.0426 -38.0398 -38.0398
   -38.0363 -38.0363 -38.0140 -38.0140 -38.0104 -38.0104 -38.0071 -38.0071
   -38.0039 -38.0039 -37.9999 -37.9963 -37.9932 -37.9899 -28.8343 -28.8342
   -28.7319 -28.7318 -28.7317 -28.7316  -5.1788  -5.1574  -3.9718  -3.9334
     3.2975   3.4803   7.0399   7.1707   7.1707   7.1718   7.1718   7.6381
     8.2575   8.2576   8.2611   8.2612   9.0653   9.3925

     occupation numbers 
     1.0000   1.0000   1.0000   1.0000   1.0000   1.0000   1.0000   1.0000
     1.0000   1.0000   1.0000   1.0000   1.0000   1.0000   1.0000   1.0000
     1.0000   1.0000   1.0000   1.0000   1.0000   1.0000   1.0000   1.0000
     1.0000   1.0000   1.0000   1.0000   1.0000   1.0000   1.0000   1.0000
     1.0000   1.0000   1.0000   1.0000   1.0000   1.0000   1.0000   1.0000
     1.0000   1.0000   1.0000   1.0000   1.0000   1.0000

          k = 0.0000 0.0000 0.0690 (  5788 PWs)   bands (ev):

   -64.6287 -64.6284 -38.0463 -38.0463 -38.0425 -38.0425 -38.0397 -38.0397
   -38.0362 -38.0362 -38.0138 -38.0138 -38.0102 -38.0102 -38.0070 -38.0070
   -38.0036 -38.0036 -37.9999 -37.9963 -37.9932 -37.9898 -28.8343 -28.8341
   -28.7318 -28.7318 -28.7316 -28.7316  -5.1766  -5.1597  -3.9676  -3.9374
     3.3159   3.4593   7.0965   7.1708   7.1708   7.1717   7.1717   7.5622
     8.2579   8.2580   8.2607   8.2608   9.1135   9.3665

     occupation numbers 
     1.0000   1.0000   1.0000   1.0000   1.0000   1.0000   1.0000   1.0000
     1.0000   1.0000   1.0000   1.0000   1.0000   1.0000   1.0000   1.0000
     1.0000   1.0000   1.0000   1.0000   1.0000   1.0000   1.0000   1.0000
     1.0000   1.0000   1.0000   1.0000   1.0000   1.0000   1.0000   1.0000
     1.0000   1.0000   1.0000   1.0000   1.0000   1.0000   1.0000   1.0000
     1.0000   1.0000   1.0000   1.0000   1.0000   1.0000

          k = 0.0000 0.0000 0.0828 (  5788 PWs)   bands (ev):

   -64.6287 -64.6284 -38.0463 -38.0463 -38.0425 -38.0425 -38.0397 -38.0397
   -38.0362 -38.0362 -38.0138 -38.0138 -38.0102 -38.0102 -38.0070 -38.0070
   -38.0036 -38.0036 -37.9999 -37.9963 -37.9932 -37.9898 -28.8343 -28.8341
   -28.7318 -28.7318 -28.7316 -28.7316  -5.1740  -5.1624  -3.9629  -3.9421
     3.3371   3.4359   7.1624   7.1709   7.1710   7.1715   7.1716   7.4808
     8.2583   8.2584   8.2603   8.2604   9.1629   9.3349

     occupation numbers 
     1.0000   1.0000   1.0000   1.0000   1.0000   1.0000   1.0000   1.0000
     1.0000   1.0000   1.0000   1.0000   1.0000   1.0000   1.0000   1.0000
     1.0000   1.0000   1.0000   1.0000   1.0000   1.0000   1.0000   1.0000
     1.0000   1.0000   1.0000   1.0000   1.0000   1.0000   1.0000   1.0000
     1.0000   1.0000   1.0000   1.0000   1.0000   1.0000   1.0000   1.0000
     1.0000   1.0000   1.0000   1.0000   1.0000   1.0000

          k = 0.0000 0.0000 0.0966 (  5776 PWs)   bands (ev):

   -64.6287 -64.6284 -38.0462 -38.0462 -38.0424 -38.0424 -38.0396 -38.0396
   -38.0361 -38.0361 -38.0137 -38.0137 -38.0101 -38.0101 -38.0067 -38.0067
   -38.0035 -38.0035 -38.0000 -37.9964 -37.9933 -37.9899 -28.8343 -28.8341
   -28.7318 -28.7318 -28.7316 -28.7316  -5.1712  -5.1653  -3.9578  -3.9472
     3.3606   3.4109   7.1711   7.1711   7.1714   7.1714   7.2358   7.3975
     8.2588   8.2589   8.2598   8.2599   9.2112   9.2982

     occupation numbers 
     1.0000   1.0000   1.0000   1.0000   1.0000   1.0000   1.0000   1.0000
     1.0000   1.0000   1.0000   1.0000   1.0000   1.0000   1.0000   1.0000
     1.0000   1.0000   1.0000   1.0000   1.0000   1.0000   1.0000   1.0000
     1.0000   1.0000   1.0000   1.0000   1.0000   1.0000   1.0000   1.0000
     1.0000   1.0000   1.0000   1.0000   1.0000   1.0000   1.0000   1.0000
     1.0000   1.0000   1.0000   1.0000   1.0000   1.0000

          k = 0.0000 0.0000-0.1104 (  5800 PWs)   bands (ev):

   -64.6287 -64.6284 -38.0463 -38.0463 -38.0425 -38.0425 -38.0398 -38.0398
   -38.0362 -38.0362 -38.0138 -38.0138 -38.0102 -38.0102 -38.0070 -38.0070
   -38.0037 -38.0037 -38.0001 -37.9965 -37.9933 -37.9900 -28.8343 -28.8342
   -28.7319 -28.7318 -28.7316 -28.7316  -5.1683  -5.1681  -3.9525  -3.9524
     3.3852   3.3858   7.1712   7.1712   7.1713   7.1713   7.3143   7.3156
     8.2593   8.2593   8.2594   8.2594   9.2560   9.2573

     occupation numbers 
     1.0000   1.0000   1.0000   1.0000   1.0000   1.0000   1.0000   1.0000
     1.0000   1.0000   1.0000   1.0000   1.0000   1.0000   1.0000   1.0000
     1.0000   1.0000   1.0000   1.0000   1.0000   1.0000   1.0000   1.0000
     1.0000   1.0000   1.0000   1.0000   1.0000   1.0000   1.0000   1.0000
     1.0000   1.0000   1.0000   1.0000   1.0000   1.0000   1.0000   1.0000
     1.0000   1.0000   1.0000   1.0000   1.0000   1.0000

          k = 0.0000 0.0722 0.0000 (  5769 PWs)   bands (ev):

   -64.6283 -64.6281 -38.0461 -38.0458 -38.0424 -38.0421 -38.0396 -38.0393
   -38.0361 -38.0358 -38.0138 -38.0138 -38.0103 -38.0102 -38.0071 -38.0070
   -38.0038 -38.0037 -37.9996 -37.9960 -37.9929 -37.9895 -28.8327 -28.8325
   -28.7396 -28.7394 -28.7336 -28.7334  -5.1269  -5.0967  -3.9510  -3.8975
     3.3361   3.5953   6.8472   6.9909   6.9932   7.2245   7.2266   7.5500
     8.1577   8.1633   8.2496   8.3908   8.9542   9.3953

     occupation numbers 
     1.0000   1.0000   1.0000   1.0000   1.0000   1.0000   1.0000   1.0000
     1.0000   1.0000   1.0000   1.0000   1.0000   1.0000   1.0000   1.0000
     1.0000   1.0000   1.0000   1.0000   1.0000   1.0000   1.0000   1.0000
     1.0000   1.0000   1.0000   1.0000   1.0000   1.0000   1.0000   1.0000
     1.0000   1.0000   1.0000   1.0000   1.0000   1.0000   1.0000   1.0000
     1.0000   1.0000   1.0000   1.0000   1.0000   1.0000

          k = 0.0000 0.0722 0.0138 (  5763 PWs)   bands (ev):

   -64.6283 -64.6281 -38.0461 -38.0458 -38.0424 -38.0421 -38.0396 -38.0393
   -38.0361 -38.0358 -38.0138 -38.0138 -38.0102 -38.0102 -38.0071 -38.0070
   -38.0037 -38.0037 -37.9995 -37.9959 -37.9928 -37.9894 -28.8327 -28.8325
   -28.7396 -28.7394 -28.7336 -28.7334  -5.1266  -5.0970  -3.9505  -3.8981
     3.3384   3.5926   6.8535   6.9909   6.9932   7.2245   7.2265   7.5427
     8.1578   8.1633   8.2500   8.3863   8.9624   9.3928

     occupation numbers 
     1.0000   1.0000   1.0000   1.0000   1.0000   1.0000   1.0000   1.0000
     1.0000   1.0000   1.0000   1.0000   1.0000   1.0000   1.0000   1.0000
     1.0000   1.0000   1.0000   1.0000   1.0000   1.0000   1.0000   1.0000
     1.0000   1.0000   1.0000   1.0000   1.0000   1.0000   1.0000   1.0000
     1.0000   1.0000   1.0000   1.0000   1.0000   1.0000   1.0000   1.0000
     1.0000   1.0000   1.0000   1.0000   1.0000   1.0000

          k = 0.0000 0.0722 0.0276 (  5761 PWs)   bands (ev):

   -64.6283 -64.6281 -38.0461 -38.0458 -38.0423 -38.0421 -38.0396 -38.0393
   -38.0360 -38.0358 -38.0138 -38.0138 -38.0103 -38.0102 -38.0070 -38.0070
   -38.0037 -38.0037 -37.9995 -37.9959 -37.9928 -37.9894 -28.8327 -28.8325
   -28.7396 -28.7394 -28.7336 -28.7334  -5.1258  -5.0979  -3.9489  -3.8995
     3.3451   3.5843   6.8723   6.9910   6.9931   7.2246   7.2265   7.5211
     8.1579   8.1631   8.2511   8.3739   8.9856   9.3852

     occupation numbers 
     1.0000   1.0000   1.0000   1.0000   1.0000   1.0000   1.0000   1.0000
     1.0000   1.0000   1.0000   1.0000   1.0000   1.0000   1.0000   1.0000
     1.0000   1.0000   1.0000   1.0000   1.0000   1.0000   1.0000   1.0000
     1.0000   1.0000   1.0000   1.0000   1.0000   1.0000   1.0000   1.0000
     1.0000   1.0000   1.0000   1.0000   1.0000   1.0000   1.0000   1.0000
     1.0000   1.0000   1.0000   1.0000   1.0000   1.0000

          k = 0.0000 0.0722 0.0414 (  5766 PWs)   bands (ev):

   -64.6283 -64.6281 -38.0461 -38.0459 -38.0423 -38.0421 -38.0395 -38.0393
   -38.0360 -38.0358 -38.0139 -38.0138 -38.0103 -38.0102 -38.0071 -38.0071
   -38.0038 -38.0037 -37.9996 -37.9960 -37.9928 -37.9895 -28.8327 -28.8325
   -28.7396 -28.7394 -28.7336 -28.7334  -5.1244  -5.0993  -3.9464  -3.9020
     3.3560   3.5711   6.9028   6.9911   6.9930   7.2247   7.2264   7.4863
     8.1582   8.1629   8.2530   8.3568   9.0199   9.3725

     occupation numbers 
     1.0000   1.0000   1.0000   1.0000   1.0000   1.0000   1.0000   1.0000
     1.0000   1.0000   1.0000   1.0000   1.0000   1.0000   1.0000   1.0000
     1.0000   1.0000   1.0000   1.0000   1.0000   1.0000   1.0000   1.0000
     1.0000   1.0000   1.0000   1.0000   1.0000   1.0000   1.0000   1.0000
     1.0000   1.0000   1.0000   1.0000   1.0000   1.0000   1.0000   1.0000
     1.0000   1.0000   1.0000   1.0000   1.0000   1.0000

          k = 0.0000 0.0722 0.0552 (  5769 PWs)   bands (ev):

   -64.6283 -64.6281 -38.0461 -38.0459 -38.0423 -38.0421 -38.0396 -38.0393
   -38.0361 -38.0358 -38.0139 -38.0138 -38.0103 -38.0102 -38.0071 -38.0071
   -38.0038 -38.0037 -37.9996 -37.9960 -37.9929 -37.9895 -28.8327 -28.8325
   -28.7396 -28.7394 -28.7336 -28.7334  -5.1226  -5.1012  -3.9430  -3.9053
     3.3708   3.5536   6.9440   6.9913   6.9929   7.2248   7.2263   7.4398
     8.1585   8.1625   8.2559   8.3382   9.0612   9.3547

     occupation numbers 
     1.0000   1.0000   1.0000   1.0000   1.0000   1.0000   1.0000   1.0000
     1.0000   1.0000   1.0000   1.0000   1.0000   1.0000   1.0000   1.0000
     1.0000   1.0000   1.0000   1.0000   1.0000   1.0000   1.0000   1.0000
     1.0000   1.0000   1.0000   1.0000   1.0000   1.0000   1.0000   1.0000
     1.0000   1.0000   1.0000   1.0000   1.0000   1.0000   1.0000   1.0000
     1.0000   1.0000   1.0000   1.0000   1.0000   1.0000

          k = 0.0000 0.0722 0.0690 (  5769 PWs)   bands (ev):

   -64.6283 -64.6281 -38.0461 -38.0459 -38.0423 -38.0421 -38.0395 -38.0393
   -38.0360 -38.0358 -38.0139 -38.0138 -38.0103 -38.0103 -38.0071 -38.0070
   -38.0038 -38.0037 -37.9997 -37.9960 -37.9929 -37.9896 -28.8327 -28.8325
   -28.7396 -28.7394 -28.7336 -28.7334  -5.1204  -5.1036  -3.9389  -3.9093
     3.3891   3.5325   6.9897   6.9926   6.9965   7.2250   7.2261   7.3838
     8.1590   8.1621   8.2599   8.3204   9.1058   9.3319

     occupation numbers 
[...]
     1.0000   1.0000   1.0000   1.0000   1.0000   1.0000   1.0000   1.0000
     1.0000   1.0000   1.0000   1.0000   1.0000   1.0000   1.0000   1.0000
     1.0000   1.0000   1.0000   1.0000   1.0000   1.0000   1.0000   1.0000
     1.0000   1.0000   1.0000   1.0000   1.0000   1.0000   1.0000   1.0000
     1.0000   1.0000   1.0000   1.0000   1.0000   1.0000   1.0000   1.0000
     1.0000   1.0000   1.0000   1.0000   1.0000   1.0000

          k = 0.2500 0.5774 0.0966 (  5846 PWs)   bands (ev):

   -64.6194 -64.6192 -38.0452 -38.0439 -38.0415 -38.0401 -38.0386 -38.0373
   -38.0351 -38.0338 -38.0151 -38.0146 -38.0115 -38.0110 -38.0084 -38.0080
   -38.0051 -38.0046 -37.9980 -37.9945 -37.9912 -37.9880 -28.9000 -28.8998
   -28.8413 -28.8411 -28.7884 -28.7882  -3.0588  -3.0576  -2.9073  -2.9061
     4.0398   4.0446   4.2985   4.3030   5.4634   5.4721   5.9478   5.9518
     6.2346   6.2474   7.2385   7.2485   9.3315   9.3420

     occupation numbers 
     1.0000   1.0000   1.0000   1.0000   1.0000   1.0000   1.0000   1.0000
     1.0000   1.0000   1.0000   1.0000   1.0000   1.0000   1.0000   1.0000
     1.0000   1.0000   1.0000   1.0000   1.0000   1.0000   1.0000   1.0000
     1.0000   1.0000   1.0000   1.0000   1.0000   1.0000   1.0000   1.0000
     1.0000   1.0000   1.0000   1.0000   1.0000   1.0000   1.0000   1.0000
     1.0000   1.0000   1.0000   1.0000   1.0000   1.0000

          k = 0.2500 0.5774-0.1104 (  5842 PWs)   bands (ev):

   -64.6194 -64.6192 -38.0452 -38.0439 -38.0415 -38.0401 -38.0386 -38.0373
   -38.0351 -38.0338 -38.0151 -38.0145 -38.0114 -38.0109 -38.0084 -38.0078
   -38.0050 -38.0045 -37.9981 -37.9945 -37.9912 -37.9880 -28.9000 -28.8998
   -28.8413 -28.8411 -28.7883 -28.7882  -3.0583  -3.0581  -2.9068  -2.9066
     4.0421   4.0424   4.3007   4.3008   5.4675   5.4680   5.9492   5.9496
     6.2416   6.2417   7.2432   7.2433   9.3367   9.3368

     occupation numbers 
     1.0000   1.0000   1.0000   1.0000   1.0000   1.0000   1.0000   1.0000
     1.0000   1.0000   1.0000   1.0000   1.0000   1.0000   1.0000   1.0000
     1.0000   1.0000   1.0000   1.0000   1.0000   1.0000   1.0000   1.0000
     1.0000   1.0000   1.0000   1.0000   1.0000   1.0000   1.0000   1.0000
     1.0000   1.0000   1.0000   1.0000   1.0000   1.0000   1.0000   1.0000
     1.0000   1.0000   1.0000   1.0000   1.0000   1.0000

          k = 0.3125 0.5413 0.0000 (  5863 PWs)   bands (ev):

   -64.6193 -64.6191 -38.0448 -38.0440 -38.0411 -38.0403 -38.0381 -38.0375
   -38.0347 -38.0340 -38.0153 -38.0148 -38.0117 -38.0111 -38.0085 -38.0082
   -38.0052 -38.0048 -37.9982 -37.9947 -37.9913 -37.9881 -28.8893 -28.8891
   -28.8557 -28.8555 -28.7879 -28.7877  -3.0263  -3.0225  -2.8894  -2.8855
     4.2450   4.2477   4.2505   4.2729   5.2975   5.3244   5.7712   5.8082
     6.2060   6.2548   7.1852   7.2132   9.4139   9.4626

     occupation numbers 
     1.0000   1.0000   1.0000   1.0000   1.0000   1.0000   1.0000   1.0000
     1.0000   1.0000   1.0000   1.0000   1.0000   1.0000   1.0000   1.0000
     1.0000   1.0000   1.0000   1.0000   1.0000   1.0000   1.0000   1.0000
     1.0000   1.0000   1.0000   1.0000   1.0000   1.0000   1.0000   1.0000
     1.0000   1.0000   1.0000   1.0000   1.0000   1.0000   1.0000   1.0000
     1.0000   1.0000   1.0000   1.0000   1.0000   1.0000

          k = 0.3125 0.5413 0.0138 (  5857 PWs)   bands (ev):

   -64.6193 -64.6191 -38.0448 -38.0440 -38.0411 -38.0403 -38.0382 -38.0374
   -38.0347 -38.0340 -38.0152 -38.0147 -38.0116 -38.0111 -38.0084 -38.0081
   -38.0051 -38.0047 -37.9982 -37.9947 -37.9913 -37.9881 -28.8893 -28.8891
   -28.8557 -28.8555 -28.7878 -28.7877  -3.0263  -3.0226  -2.8894  -2.8856
     4.2451   4.2478   4.2506   4.2726   5.2977   5.3241   5.7712   5.8074
     6.2072   6.2549   7.1852   7.2126   9.4143   9.4621

     occupation numbers 
     1.0000   1.0000   1.0000   1.0000   1.0000   1.0000   1.0000   1.0000
     1.0000   1.0000   1.0000   1.0000   1.0000   1.0000   1.0000   1.0000
     1.0000   1.0000   1.0000   1.0000   1.0000   1.0000   1.0000   1.0000
     1.0000   1.0000   1.0000   1.0000   1.0000   1.0000   1.0000   1.0000
     1.0000   1.0000   1.0000   1.0000   1.0000   1.0000   1.0000   1.0000
     1.0000   1.0000   1.0000   1.0000   1.0000   1.0000

          k = 0.3125 0.5413 0.0276 (  5862 PWs)   bands (ev):

   -64.6193 -64.6191 -38.0448 -38.0441 -38.0411 -38.0403 -38.0382 -38.0375
   -38.0348 -38.0340 -38.0152 -38.0148 -38.0116 -38.0111 -38.0085 -38.0082
   -38.0052 -38.0048 -37.9982 -37.9947 -37.9913 -37.9881 -28.8893 -28.8891
   -28.8557 -28.8555 -28.7879 -28.7877  -3.0261  -3.0227  -2.8892  -2.8857
     4.2455   4.2478   4.2510   4.2719   5.2985   5.3234   5.7711   5.8051
     6.2104   6.2553   7.1852   7.2111   9.4157   9.4606

     occupation numbers 
     1.0000   1.0000   1.0000   1.0000   1.0000   1.0000   1.0000   1.0000
     1.0000   1.0000   1.0000   1.0000   1.0000   1.0000   1.0000   1.0000
     1.0000   1.0000   1.0000   1.0000   1.0000   1.0000   1.0000   1.0000
     1.0000   1.0000   1.0000   1.0000   1.0000   1.0000   1.0000   1.0000
     1.0000   1.0000   1.0000   1.0000   1.0000   1.0000   1.0000   1.0000
     1.0000   1.0000   1.0000   1.0000   1.0000   1.0000

          k = 0.3125 0.5413 0.0414 (  5854 PWs)   bands (ev):

   -64.6193 -64.6191 -38.0448 -38.0440 -38.0411 -38.0403 -38.0381 -38.0375
   -38.0347 -38.0340 -38.0152 -38.0147 -38.0116 -38.0111 -38.0084 -38.0081
   -38.0051 -38.0047 -37.9981 -37.9946 -37.9912 -37.9880 -28.8893 -28.8891
   -28.8557 -28.8555 -28.7878 -28.7876  -3.0260  -3.0229  -2.8891  -2.8859
     4.2459   4.2479   4.2517   4.2707   5.2998   5.3222   5.7712   5.8015
     6.2155   6.2556   7.1854   7.2087   9.4178   9.4583

     occupation numbers 
     1.0000   1.0000   1.0000   1.0000   1.0000   1.0000   1.0000   1.0000
     1.0000   1.0000   1.0000   1.0000   1.0000   1.0000   1.0000   1.0000
     1.0000   1.0000   1.0000   1.0000   1.0000   1.0000   1.0000   1.0000
     1.0000   1.0000   1.0000   1.0000   1.0000   1.0000   1.0000   1.0000
     1.0000   1.0000   1.0000   1.0000   1.0000   1.0000   1.0000   1.0000
     1.0000   1.0000   1.0000   1.0000   1.0000   1.0000

          k = 0.3125 0.5413 0.0552 (  5847 PWs)   bands (ev):

   -64.6193 -64.6191 -38.0448 -38.0440 -38.0411 -38.0403 -38.0381 -38.0375
   -38.0347 -38.0340 -38.0151 -38.0146 -38.0115 -38.0110 -38.0084 -38.0080
   -38.0051 -38.0046 -37.9981 -37.9946 -37.9912 -37.9879 -28.8893 -28.8891
   -28.8557 -28.8555 -28.7878 -28.7876  -3.0258  -3.0231  -2.8888  -2.8861
     4.2463   4.2480   4.2528   4.2692   5.3015   5.3205   5.7715   5.7970
     6.2217   6.2557   7.1857   7.2056   9.4207   9.4551

     occupation numbers 
     1.0000   1.0000   1.0000   1.0000   1.0000   1.0000   1.0000   1.0000
     1.0000   1.0000   1.0000   1.0000   1.0000   1.0000   1.0000   1.0000
     1.0000   1.0000   1.0000   1.0000   1.0000   1.0000   1.0000   1.0000
     1.0000   1.0000   1.0000   1.0000   1.0000   1.0000   1.0000   1.0000
     1.0000   1.0000   1.0000   1.0000   1.0000   1.0000   1.0000   1.0000
     1.0000   1.0000   1.0000   1.0000   1.0000   1.0000

          k = 0.3125 0.5413 0.0690 (  5831 PWs)   bands (ev):

   -64.6193 -64.6190 -38.0447 -38.0440 -38.0410 -38.0402 -38.0381 -38.0374
   -38.0347 -38.0339 -38.0150 -38.0145 -38.0113 -38.0109 -38.0083 -38.0078
   -38.0049 -38.0045 -37.9980 -37.9945 -37.9911 -37.9879 -28.8893 -28.8891
   -28.8557 -28.8555 -28.7877 -28.7875  -3.0255  -3.0234  -2.8885  -2.8864
     4.2467   4.2481   4.2543   4.2673   5.3036   5.3185   5.7723   5.7921
     6.2286   6.2551   7.1865   7.2022   9.4243   9.4513

     occupation numbers 
     1.0000   1.0000   1.0000   1.0000   1.0000   1.0000   1.0000   1.0000
     1.0000   1.0000   1.0000   1.0000   1.0000   1.0000   1.0000   1.0000
     1.0000   1.0000   1.0000   1.0000   1.0000   1.0000   1.0000   1.0000
     1.0000   1.0000   1.0000   1.0000   1.0000   1.0000   1.0000   1.0000
     1.0000   1.0000   1.0000   1.0000   1.0000   1.0000   1.0000   1.0000
     1.0000   1.0000   1.0000   1.0000   1.0000   1.0000

          k = 0.3125 0.5413 0.0828 (  5839 PWs)   bands (ev):

   -64.6193 -64.6190 -38.0447 -38.0440 -38.0410 -38.0403 -38.0381 -38.0375
   -38.0347 -38.0340 -38.0151 -38.0146 -38.0114 -38.0109 -38.0084 -38.0079
   -38.0050 -38.0045 -37.9981 -37.9946 -37.9911 -37.9879 -28.8893 -28.8891
   -28.8557 -28.8555 -28.7878 -28.7876  -3.0252  -3.0237  -2.8882  -2.8867
     4.2469   4.2482   4.2561   4.2652   5.3059   5.3162   5.7737   5.7873
     6.2354   6.2536   7.1878   7.1986   9.4284   9.4470

     occupation numbers 
     1.0000   1.0000   1.0000   1.0000   1.0000   1.0000   1.0000   1.0000
     1.0000   1.0000   1.0000   1.0000   1.0000   1.0000   1.0000   1.0000
     1.0000   1.0000   1.0000   1.0000   1.0000   1.0000   1.0000   1.0000
     1.0000   1.0000   1.0000   1.0000   1.0000   1.0000   1.0000   1.0000
     1.0000   1.0000   1.0000   1.0000   1.0000   1.0000   1.0000   1.0000
     1.0000   1.0000   1.0000   1.0000   1.0000   1.0000

          k = 0.3125 0.5413 0.0966 (  5830 PWs)   bands (ev):

   -64.6193 -64.6190 -38.0447 -38.0440 -38.0410 -38.0403 -38.0381 -38.0375
   -38.0346 -38.0340 -38.0150 -38.0145 -38.0114 -38.0109 -38.0083 -38.0079
   -38.0049 -38.0045 -37.9980 -37.9945 -37.9911 -37.9879 -28.8893 -28.8891
   -28.8557 -28.8555 -28.7877 -28.7875  -3.0248  -3.0241  -2.8878  -2.8871
     4.2471   4.2483   4.2582   4.2630   5.3085   5.3137   5.7759   5.7828
     6.2416   6.2509   7.1896   7.1952   9.4329   9.4424

     occupation numbers 
     1.0000   1.0000   1.0000   1.0000   1.0000   1.0000   1.0000   1.0000
     1.0000   1.0000   1.0000   1.0000   1.0000   1.0000   1.0000   1.0000
     1.0000   1.0000   1.0000   1.0000   1.0000   1.0000   1.0000   1.0000
     1.0000   1.0000   1.0000   1.0000   1.0000   1.0000   1.0000   1.0000
     1.0000   1.0000   1.0000   1.0000   1.0000   1.0000   1.0000   1.0000
     1.0000   1.0000   1.0000   1.0000   1.0000   1.0000

          k = 0.3125 0.5413-0.1104 (  5822 PWs)   bands (ev):

   -64.6193 -64.6190 -38.0447 -38.0440 -38.0410 -38.0402 -38.0380 -38.0374
   -38.0346 -38.0339 -38.0149 -38.0144 -38.0113 -38.0108 -38.0082 -38.0078
   -38.0049 -38.0044 -37.9979 -37.9944 -37.9911 -37.9878 -28.8893 -28.8891
   -28.8556 -28.8554 -28.7877 -28.7875  -3.0245  -3.0243  -2.8875  -2.8874
     4.2471   4.2483   4.2600   4.2611   5.3110   5.3112   5.7787   5.7792
     6.2467   6.2470   7.1921   7.1922   9.4376   9.4377

     occupation numbers 
     1.0000   1.0000   1.0000   1.0000   1.0000   1.0000   1.0000   1.0000
     1.0000   1.0000   1.0000   1.0000   1.0000   1.0000   1.0000   1.0000
     1.0000   1.0000   1.0000   1.0000   1.0000   1.0000   1.0000   1.0000
     1.0000   1.0000   1.0000   1.0000   1.0000   1.0000   1.0000   1.0000
     1.0000   1.0000   1.0000   1.0000   1.0000   1.0000   1.0000   1.0000
     1.0000   1.0000   1.0000   1.0000   1.0000   1.0000

     highest occupied level (ev):     9.4626

* XDM dispersion
  a1 =     0.327500
  a2 (ang) =     2.767300
  a2 (bohr) =     5.229439

+ Volumes and moments
# All results in atomic units (Hartree,bohr)
# i        V             Vfree           M1             M2             M3
  1   1.899372E+02   1.889096E+02   8.768092E+00   1.922648E+02   5.754145E+03
  2   1.899365E+02   1.889096E+02   8.768633E+00   1.922810E+02   5.754535E+03
  3   1.019335E+02   1.047414E+02   9.687080E+00   1.494315E+02   2.846685E+03
  4   1.019364E+02   1.047414E+02   9.687449E+00   1.494424E+02   2.846934E+03
  5   1.019305E+02   1.047414E+02   9.686952E+00   1.494262E+02   2.846616E+03
  6   1.019291E+02   1.047414E+02   9.687156E+00   1.494292E+02   2.846661E+03

+ Dispersion coefficients
# All results in atomic units (Hartree,bohr).
# i   j      C6             C8             C10            Rc            Rvdw
  1   1   3.283936E+02   2.160282E+04   1.525229E+06   8.256202E+00   7.933345E+00
  2   1   3.284037E+02   2.160374E+04   1.525293E+06   8.256225E+00   7.933353E+00
  2   2   3.284139E+02   2.160465E+04   1.525358E+06   8.256249E+00   7.933361E+00
  3   1   1.670987E+02   9.362616E+03   5.549210E+05   7.591771E+00   7.715744E+00
  3   2   1.671067E+02   9.363185E+03   5.549541E+05   7.591793E+00   7.715751E+00
  3   3   1.199222E+02   5.549705E+03   2.608158E+05   6.829057E+00   7.465955E+00
  4   1   1.671038E+02   9.363034E+03   5.549509E+05   7.591816E+00   7.715759E+00
  4   2   1.671117E+02   9.363604E+03   5.549840E+05   7.591838E+00   7.715766E+00
  4   3   1.199261E+02   5.549985E+03   2.608321E+05   6.829107E+00   7.465972E+00
  4   4   1.199301E+02   5.550266E+03   2.608483E+05   6.829157E+00   7.465988E+00
  5   1   1.670944E+02   9.362290E+03   5.549004E+05   7.591750E+00   7.715737E+00
  5   2   1.671024E+02   9.362860E+03   5.549335E+05   7.591772E+00   7.715745E+00
  5   3   1.199196E+02   5.549526E+03   2.608068E+05   6.829035E+00   7.465948E+00
  5   4   1.199236E+02   5.549806E+03   2.608231E+05   6.829085E+00   7.465965E+00
  5   5   1.199170E+02   5.549347E+03   2.607979E+05   6.829013E+00   7.465941E+00
  6   1   1.670934E+02   9.362230E+03   5.548964E+05   7.591747E+00   7.715736E+00
  6   2   1.671014E+02   9.362800E+03   5.549295E+05   7.591770E+00   7.715744E+00
  6   3   1.199200E+02   5.549543E+03   2.608072E+05   6.829032E+00   7.465947E+00
  6   4   1.199240E+02   5.549823E+03   2.608235E+05   6.829082E+00   7.465963E+00
  6   5   1.199175E+02   5.549364E+03   2.607983E+05   6.829010E+00   7.465940E+00
  6   6   1.199179E+02   5.549380E+03   2.607987E+05   6.829007E+00   7.465939E+00

+ van der Waals energies, forces and stresses (Ry,bohr)
  Evdw(total,Ry)   =  -2.146398357111E-01
  Evdw(C6,Ry)      =  -8.692683737221E-02
  Evdw(C8,Ry)      =  -6.665782599651E-02
  Evdw(C10,Ry)     =  -6.105517234241E-02
  Fvdw (001,Ry/bohr) =  -5.212465126367E-09   3.009418238987E-09   7.587327290594E-08
  Fvdw (002,Ry/bohr) =   5.212758485052E-09  -3.009587627740E-09   8.361430349125E-08
  Fvdw (003,Ry/bohr) =   2.595397159963E-09  -1.498453289514E-09  -2.763962096389E-03
  Fvdw (004,Ry/bohr) =  -2.595598579172E-09   1.498569583077E-09  -2.764330463785E-03
  Fvdw (005,Ry/bohr) =   2.595351092430E-09  -1.498426689341E-09   2.763969701637E-03
  Fvdw (006,Ry/bohr) =  -2.595443057263E-09   1.498479781905E-09   2.764163370961E-03
  sigma_vdw (Ry/bohr**3) =  -2.183252739135E-04   4.625763338357E-11  -8.845740831213E-17  
                             4.625763338357E-11  -2.183252204998E-04   5.108982128162E-17  
                            -8.845740831213E-17   5.108982128162E-17  -1.488576583376E-04  
  sigma_vdw (GPa) =  -3.211675655379E+00   6.804732789310E-07  -1.301253399212E-12  
                      6.804732789310E-07  -3.211674869636E+00   7.515572169295E-13  
                     -1.301253399212E-12   7.515572169295E-13  -2.189771751250E+00  


!    total energy              =   -3128.20270793 Ry

     total all-electron energy =    -84012.927272 Ry
     estimated scf accuracy    <          3.4E-09 Ry

     The total energy is the sum of the following terms:
     one-electron contribution =   -1164.64514576 Ry
     hartree contribution      =     604.12831359 Ry
     xc contribution           =    -194.02870749 Ry
     ewald contribution        =    -598.62721372 Ry
     Dispersion XDM Correction =      -0.21463984 Ry
     one-center paw contrib.   =   -1774.81531470 Ry
      -> PAW hartree energy AE =     182.47313411 Ry
      -> PAW hartree energy PS =    -181.48943108 Ry
      -> PAW xc energy AE      =   -1289.20127930 Ry
      -> PAW xc energy PS      =      77.12116433 Ry
      -> total E_H with PAW    =     605.11201662 Ry
      -> total E_XC with PAW   =   -1406.10882246 Ry

     convergence has been achieved in  11 iterations

     Writing output data file ./tmp/WSe2.save/

     init_run     :     66.51s CPU     68.20s WALL (       1 calls)
     electrons    :   2455.62s CPU   2514.05s WALL (       1 calls)

     Called by init_run:
     wfcinit      :     63.93s CPU     65.40s WALL (       1 calls)
     wfcinit:atom :      0.35s CPU      0.35s WALL (     270 calls)
     wfcinit:wfcr :     61.84s CPU     63.30s WALL (     270 calls)
     potinit      :      0.89s CPU      0.95s WALL (       1 calls)
     hinit0       :      1.15s CPU      1.15s WALL (       1 calls)
     init_xdm     :      0.00s CPU      0.00s WALL (       1 calls)

     Called by electrons:
     c_bands      :   1734.16s CPU   1762.05s WALL (      12 calls)
     sum_band     :    704.68s CPU    734.06s WALL (      12 calls)
     v_of_rho     :      1.35s CPU      1.45s WALL (      12 calls)
     v_h          :      0.09s CPU      0.11s WALL (      12 calls)
     v_xc         :      1.26s CPU      1.34s WALL (      12 calls)
     newd         :      4.44s CPU      5.54s WALL (      12 calls)
     PAW_pot      :      4.87s CPU      4.92s WALL (      12 calls)
     mix_rho      :      0.39s CPU      0.43s WALL (      12 calls)
     energy_xdm   :      6.45s CPU      6.48s WALL (       1 calls)
     exdm:environ :      0.01s CPU      0.01s WALL (       2 calls)
     exdm:paw_cha :      0.16s CPU      0.16s WALL (       1 calls)
     exdm:rho     :      2.09s CPU      2.09s WALL (       1 calls)

     Called by c_bands:
     init_us_2    :      9.96s CPU     10.04s WALL (    6750 calls)
     cegterg      :   1688.52s CPU   1716.18s WALL (    3240 calls)

     Called by sum_band:
     sum_band:wei :      0.00s CPU      0.00s WALL (      12 calls)
     sum_band:loo :    697.48s CPU    725.35s WALL (      12 calls)
     sum_band:buf :      1.58s CPU      1.60s WALL (    3240 calls)
     sum_band:ini :      4.60s CPU      4.62s WALL (    3240 calls)
     sum_band:cal :     82.36s CPU     83.22s WALL (    3240 calls)
     sum_band:bec :      0.51s CPU      0.51s WALL (    3240 calls)
     addusdens    :      6.69s CPU      8.14s WALL (      12 calls)
     addusd:skk   :      0.02s CPU      0.02s WALL (      24 calls)
     addusd:dgemm :      2.72s CPU      4.10s WALL (      24 calls)
     addusd:qvan2 :      3.67s CPU      3.67s WALL (      24 calls)

     Called by *egterg:
     cdiaghg      :     66.84s CPU     67.33s WALL (   15885 calls)
     cegterg:over :    222.00s CPU    222.85s WALL (   12915 calls)
     cegterg:upda :    102.05s CPU    102.77s WALL (   12915 calls)
     cegterg:last :    230.21s CPU    231.42s WALL (    6757 calls)
     cdiaghg:chol :      4.59s CPU      4.61s WALL (   15885 calls)
     cdiaghg:inve :      0.57s CPU      0.58s WALL (   15885 calls)
     cdiaghg:para :     18.61s CPU     18.76s WALL (   31770 calls)
     h_psi        :    839.10s CPU    864.19s WALL (   16425 calls)
     s_psi        :    191.23s CPU    191.66s WALL (   16425 calls)
     g_psi        :      6.40s CPU      6.42s WALL (   12915 calls)

     Called by h_psi:
     h_psi:calbec :    233.69s CPU    237.50s WALL (   16425 calls)
     vloc_psi     :    400.61s CPU    421.29s WALL (   16425 calls)
     add_vuspsi   :    201.53s CPU    202.20s WALL (   16425 calls)

     General routines
     calbec       :    315.93s CPU    320.63s WALL (   19665 calls)
     fft          :      1.31s CPU      1.43s WALL (     197 calls)
     ffts         :      0.04s CPU      0.04s WALL (      36 calls)
     fftw         :    731.59s CPU    766.34s WALL ( 1402478 calls)
     interpolate  :      0.12s CPU      0.12s WALL (      12 calls)

     Parallel routines
     fft_scatt_xy :    131.10s CPU    137.37s WALL ( 1402711 calls)
     fft_scatt_yz :    268.76s CPU    282.69s WALL ( 1402711 calls)

     PAW routines
     PAW_pot      :      4.87s CPU      4.92s WALL (      12 calls)
     PAW_symme    :      0.07s CPU      0.07s WALL (      24 calls)

     PWSCF        :  42m 3.21s CPU  43m 5.52s WALL


   This run was terminated on:  17:43:42   6Sep2024            

=------------------------------------------------------------------------------=
   JOB DONE.
=------------------------------------------------------------------------------=
