
     Program PWSCF v.6.7MaX starts on  7Sep2024 at  1:43:12 

     This program is part of the open-source Quantum ESPRESSO suite
     for quantum simulation of materials; please cite
         "P. Giannozzi et al., J. Phys.:Condens. Matter 21 395502 (2009);
         "P. Giannozzi et al., J. Phys.:Condens. Matter 29 465901 (2017);
          URL http://www.quantum-espresso.org", 
     in publications or presentations arising from this work. More details at
     http://www.quantum-espresso.org/quote

     Parallel version (MPI), running on     4 processors

     MPI processes distributed on     1 nodes
     R & G space division:  proc/nbgrp/npool/nimage =       4
     Reading input from WSe2_SCF2.inp

     Current dimensions of program PWSCF are:
     Max number of different atomic species (ntypx) = 10
     Max number of k-points (npk) =  40000
     Max angular momentum in pseudopotentials (lmaxx) =  3
     file W.pbe-spn-kjpaw_psl.1.0.0.UPF: wavefunction(s)  6S 5P 5D renormalized
     file Se.pbe-dn-kjpaw_psl.1.0.0.UPF: wavefunction(s)  4S 4P 3D renormalized

     IMPORTANT: XC functional enforced from input :
     Exchange-correlation= PBE
                           (   1   4   3   4   0   0   0)
     Any further DFT definition will be discarded
     Please, verify this is what you really want


     Subspace diagonalization in iterative solution of the eigenvalue problem:
     one sub-group per band group will be used
     scalapack distributed-memory algorithm (size of sub-group:  2*  2 procs)


     Parallelization info
     --------------------
     sticks:   dense  smooth     PW     G-vecs:    dense   smooth      PW
     Min         321     148     42                42597    13420    2115
     Max         322     149     43                42620    13435    2122
     Sum        1285     595    169               170417    53709    8473



     bravais-lattice index     =            4
     lattice parameter (alat)  =       6.2873  a.u.
     unit-cell volume          =     974.8449 (a.u.)^3
     number of atoms/cell      =            6
     number of atomic types    =            2
     number of electrons       =        92.00
     number of Kohn-Sham states=           46
     kinetic-energy cutoff     =      55.0000  Ry
     charge density cutoff     =     475.0000  Ry
     scf convergence threshold =      1.0E-08
     mixing beta               =       0.6000
     number of iterations used =            8  plain     mixing
     Exchange-correlation= PBE
                           (   1   4   3   4   0   0   0)

     celldm(1)=   6.287251  celldm(2)=   0.000000  celldm(3)=   4.529210
     celldm(4)=   0.000000  celldm(5)=   0.000000  celldm(6)=   0.000000

     crystal axes: (cart. coord. in units of alat)
               a(1) = (   1.000000   0.000000   0.000000 )  
               a(2) = (  -0.500000   0.866025   0.000000 )  
               a(3) = (   0.000000   0.000000   4.529210 )  

     reciprocal axes: (cart. coord. in units 2 pi/alat)
               b(1) = (  1.000000  0.577350 -0.000000 )  
               b(2) = (  0.000000  1.154701  0.000000 )  
               b(3) = (  0.000000 -0.000000  0.220789 )  


     PseudoPot. # 1 for W  read from file:
     /home/alessandro_rotondi/q-e/pseudo/W.pbe-spn-kjpaw_psl.1.0.0.UPF
     MD5 check sum: 03c3df5b60893f488392c7401945500a
     Pseudo is Projector augmented-wave + core cor, Zval = 14.0
     Generated using &quot;atomic&quot; code by A. Dal Corso  v.6.2.2
     Shape of augmentation charge: PSQ
     Using radial grid of 1273 points,  6 beta functions with: 
                l(1) =   0
                l(2) =   0
                l(3) =   1
                l(4) =   1
                l(5) =   2
                l(6) =   2
     Q(r) pseudized with 0 coefficients 


     PseudoPot. # 2 for Se read from file:
     /home/alessandro_rotondi/q-e/pseudo/Se.pbe-dn-kjpaw_psl.1.0.0.UPF
     MD5 check sum: ac240dd2bae32a30e0bf3a38df9c8785
     Pseudo is Projector augmented-wave + core cor, Zval = 16.0
     Generated using &quot;atomic&quot; code by A. Dal Corso  v.6.3
     Shape of augmentation charge: PSQ
     Using radial grid of 1211 points,  6 beta functions with: 
                l(1) =   0
                l(2) =   0
                l(3) =   1
                l(4) =   1
                l(5) =   2
                l(6) =   2
     Q(r) pseudized with 0 coefficients 


     atomic species   valence    mass     pseudopotential
        W             14.00   183.84000     W ( 1.00)
        Se            16.00    78.96000     Se( 1.00)

     24 Sym. Ops., with inversion, found (12 have fractional translation)


                                    s                        frac. trans.

      isym =  1     identity                                     

 cryst.   s( 1) = (     1          0          0      )
                  (     0          1          0      )
                  (     0          0          1      )

 cart.    s( 1) = (  1.0000000  0.0000000  0.0000000 )
                  (  0.0000000  1.0000000  0.0000000 )
                  (  0.0000000  0.0000000  1.0000000 )


      isym =  2     180 deg rotation - cart. axis [0,0,1]        

 cryst.   s( 2) = (    -1          0          0      )    f =(  0.0000000 )
                  (     0         -1          0      )       (  0.0000000 )
                  (     0          0          1      )       (  0.4999990 )

 cart.    s( 2) = ( -1.0000000  0.0000000  0.0000000 )    f =(  0.0000000 )
                  (  0.0000000 -1.0000000  0.0000000 )       (  0.0000000 )
                  (  0.0000000  0.0000000  1.0000000 )       (  2.2646007 )


      isym =  3     180 deg rotation - cart. axis [0,1,0]        

 cryst.   s( 3) = (    -1          0          0      )    f =(  0.0000010 )
                  (     1          1          0      )       (  0.0000000 )
                  (     0          0         -1      )       ( -0.4999980 )

 cart.    s( 3) = ( -1.0000000  0.0000000  0.0000000 )    f =(  0.0000010 )
                  (  0.0000000  1.0000000  0.0000000 )       (  0.0000000 )
                  (  0.0000000  0.0000000 -1.0000000 )       ( -2.2645961 )


      isym =  4     180 deg rotation - cart. axis [1,0,0]        

 cryst.   s( 4) = (     1          0          0      )
                  (    -1         -1          0      )
                  (     0          0         -1      )

 cart.    s( 4) = (  1.0000000  0.0000000  0.0000000 )
                  (  0.0000000 -1.0000000  0.0000000 )
                  (  0.0000000  0.0000000 -1.0000000 )


      isym =  5      60 deg rotation - cryst. axis [0,0,1]       

 cryst.   s( 5) = (     1          1          0      )    f =(  0.0000010 )
                  (    -1          0          0      )       (  0.0000000 )
                  (     0          0          1      )       (  0.4999990 )

 cart.    s( 5) = (  0.5000000 -0.8660254  0.0000000 )    f =(  0.0000010 )
                  (  0.8660254  0.5000000  0.0000000 )       (  0.0000000 )
                  (  0.0000000  0.0000000  1.0000000 )       (  2.2646007 )


      isym =  6      60 deg rotation - cryst. axis [0,0,-1]      

 cryst.   s( 6) = (     0         -1          0      )    f =(  0.0000000 )
                  (     1          1          0      )       ( -0.0000010 )
                  (     0          0          1      )       (  0.4999990 )

 cart.    s( 6) = (  0.5000000  0.8660254  0.0000000 )    f =(  0.0000005 )
                  ( -0.8660254  0.5000000  0.0000000 )       ( -0.0000009 )
                  (  0.0000000  0.0000000  1.0000000 )       (  2.2646007 )


      isym =  7     120 deg rotation - cryst. axis [0,0,1]       

 cryst.   s( 7) = (     0          1          0      )
                  (    -1         -1          0      )
                  (     0          0          1      )

 cart.    s( 7) = ( -0.5000000 -0.8660254  0.0000000 )
                  (  0.8660254 -0.5000000  0.0000000 )
                  (  0.0000000  0.0000000  1.0000000 )


      isym =  8     120 deg rotation - cryst. axis [0,0,-1]      

 cryst.   s( 8) = (    -1         -1          0      )
                  (     1          0          0      )
                  (     0          0          1      )

 cart.    s( 8) = ( -0.5000000  0.8660254  0.0000000 )
                  ( -0.8660254 -0.5000000  0.0000000 )
                  (  0.0000000  0.0000000  1.0000000 )


      isym =  9     180 deg rotation - cryst. axis [1,-1,0]      

 cryst.   s( 9) = (     0         -1          0      )    f =(  0.0000000 )
                  (    -1          0          0      )       (  0.0000000 )
                  (     0          0         -1      )       ( -0.4999980 )

 cart.    s( 9) = (  0.5000000 -0.8660254  0.0000000 )    f =(  0.0000000 )
                  ( -0.8660254 -0.5000000  0.0000000 )       (  0.0000000 )
                  (  0.0000000  0.0000000 -1.0000000 )       ( -2.2645961 )


      isym = 10     180 deg rotation - cryst. axis [2,1,0]       

 cryst.   s(10) = (     1          1          0      )    f =(  0.0000000 )
                  (     0         -1          0      )       ( -0.0000010 )
                  (     0          0         -1      )       ( -0.4999980 )

 cart.    s(10) = (  0.5000000  0.8660254  0.0000000 )    f =(  0.0000005 )
                  (  0.8660254 -0.5000000  0.0000000 )       ( -0.0000009 )
                  (  0.0000000  0.0000000 -1.0000000 )       ( -2.2645961 )


      isym = 11     180 deg rotation - cryst. axis [0,1,0]       

 cryst.   s(11) = (    -1         -1          0      )
                  (     0          1          0      )
                  (     0          0         -1      )

 cart.    s(11) = ( -0.5000000 -0.8660254  0.0000000 )
                  ( -0.8660254  0.5000000  0.0000000 )
                  (  0.0000000  0.0000000 -1.0000000 )


      isym = 12     180 deg rotation - cryst. axis [1,1,0]       

 cryst.   s(12) = (     0          1          0      )
                  (     1          0          0      )
                  (     0          0         -1      )

 cart.    s(12) = ( -0.5000000  0.8660254  0.0000000 )
                  (  0.8660254  0.5000000  0.0000000 )
                  (  0.0000000  0.0000000 -1.0000000 )


      isym = 13     inversion                                    

 cryst.   s(13) = (    -1          0          0      )
                  (     0         -1          0      )
                  (     0          0         -1      )

 cart.    s(13) = ( -1.0000000  0.0000000  0.0000000 )
                  (  0.0000000 -1.0000000  0.0000000 )
                  (  0.0000000  0.0000000 -1.0000000 )


      isym = 14     inv. 180 deg rotation - cart. axis [0,0,1]   

 cryst.   s(14) = (     1          0          0      )    f =(  0.0000000 )
                  (     0          1          0      )       (  0.0000000 )
                  (     0          0         -1      )       ( -0.4999980 )

 cart.    s(14) = (  1.0000000  0.0000000  0.0000000 )    f =(  0.0000000 )
                  (  0.0000000  1.0000000  0.0000000 )       (  0.0000000 )
                  (  0.0000000  0.0000000 -1.0000000 )       ( -2.2645961 )


      isym = 15     inv. 180 deg rotation - cart. axis [0,1,0]   

 cryst.   s(15) = (     1          0          0      )    f =(  0.0000010 )
                  (    -1         -1          0      )       (  0.0000000 )
                  (     0          0          1      )       (  0.4999990 )

 cart.    s(15) = (  1.0000000  0.0000000  0.0000000 )    f =(  0.0000010 )
                  (  0.0000000 -1.0000000  0.0000000 )       (  0.0000000 )
                  (  0.0000000  0.0000000  1.0000000 )       (  2.2646007 )


      isym = 16     inv. 180 deg rotation - cart. axis [1,0,0]   

 cryst.   s(16) = (    -1          0          0      )
                  (     1          1          0      )
                  (     0          0          1      )

 cart.    s(16) = ( -1.0000000  0.0000000  0.0000000 )
                  (  0.0000000  1.0000000  0.0000000 )
                  (  0.0000000  0.0000000  1.0000000 )


      isym = 17     inv.  60 deg rotation - cryst. axis [0,0,1]  

 cryst.   s(17) = (    -1         -1          0      )    f =(  0.0000010 )
                  (     1          0          0      )       (  0.0000000 )
                  (     0          0         -1      )       ( -0.4999980 )

 cart.    s(17) = ( -0.5000000  0.8660254  0.0000000 )    f =(  0.0000010 )
                  ( -0.8660254 -0.5000000  0.0000000 )       (  0.0000000 )
                  (  0.0000000  0.0000000 -1.0000000 )       ( -2.2645961 )


      isym = 18     inv.  60 deg rotation - cryst. axis [0,0,-1] 

 cryst.   s(18) = (     0          1          0      )    f =(  0.0000000 )
                  (    -1         -1          0      )       ( -0.0000010 )
                  (     0          0         -1      )       ( -0.4999980 )

 cart.    s(18) = ( -0.5000000 -0.8660254  0.0000000 )    f =(  0.0000005 )
                  (  0.8660254 -0.5000000  0.0000000 )       ( -0.0000009 )
                  (  0.0000000  0.0000000 -1.0000000 )       ( -2.2645961 )


      isym = 19     inv. 120 deg rotation - cryst. axis [0,0,1]  

 cryst.   s(19) = (     0         -1          0      )
                  (     1          1          0      )
                  (     0          0         -1      )

 cart.    s(19) = (  0.5000000  0.8660254  0.0000000 )
                  ( -0.8660254  0.5000000  0.0000000 )
                  (  0.0000000  0.0000000 -1.0000000 )


      isym = 20     inv. 120 deg rotation - cryst. axis [0,0,-1] 

 cryst.   s(20) = (     1          1          0      )
                  (    -1          0          0      )
                  (     0          0         -1      )

 cart.    s(20) = (  0.5000000 -0.8660254  0.0000000 )
                  (  0.8660254  0.5000000  0.0000000 )
                  (  0.0000000  0.0000000 -1.0000000 )


      isym = 21     inv. 180 deg rotation - cryst. axis [1,-1,0] 

 cryst.   s(21) = (     0          1          0      )    f =(  0.0000000 )
                  (     1          0          0      )       (  0.0000000 )
                  (     0          0          1      )       (  0.4999990 )

 cart.    s(21) = ( -0.5000000  0.8660254  0.0000000 )    f =( -0.0000000 )
                  (  0.8660254  0.5000000  0.0000000 )       (  0.0000000 )
                  (  0.0000000  0.0000000  1.0000000 )       (  2.2646007 )


      isym = 22     inv. 180 deg rotation - cryst. axis [2,1,0]  

 cryst.   s(22) = (    -1         -1          0      )    f =(  0.0000000 )
                  (     0          1          0      )       ( -0.0000010 )
                  (     0          0          1      )       (  0.4999990 )

 cart.    s(22) = ( -0.5000000 -0.8660254  0.0000000 )    f =(  0.0000005 )
                  ( -0.8660254  0.5000000  0.0000000 )       ( -0.0000009 )
                  (  0.0000000  0.0000000  1.0000000 )       (  2.2646007 )


      isym = 23     inv. 180 deg rotation - cryst. axis [0,1,0]  

 cryst.   s(23) = (     1          1          0      )
                  (     0         -1          0      )
                  (     0          0          1      )

 cart.    s(23) = (  0.5000000  0.8660254  0.0000000 )
                  (  0.8660254 -0.5000000  0.0000000 )
                  (  0.0000000  0.0000000  1.0000000 )


      isym = 24     inv. 180 deg rotation - cryst. axis [1,1,0]  

 cryst.   s(24) = (     0         -1          0      )
                  (    -1          0          0      )
                  (     0          0          1      )

 cart.    s(24) = (  0.5000000 -0.8660254  0.0000000 )
                  ( -0.8660254 -0.5000000  0.0000000 )
                  (  0.0000000  0.0000000  1.0000000 )


     point group D_6h(6/mmm)
     there are 12 classes
     the character table:

       E     2C6   2C3   C2    3C2'  3C2'' i     2S3   2S6   s_h   3s_d  3s_v 
A_1g   1.00  1.00  1.00  1.00  1.00  1.00  1.00  1.00  1.00  1.00  1.00  1.00
A_2g   1.00  1.00  1.00  1.00 -1.00 -1.00  1.00  1.00  1.00  1.00 -1.00 -1.00
B_1g   1.00 -1.00  1.00 -1.00  1.00 -1.00  1.00 -1.00  1.00 -1.00  1.00 -1.00
B_2g   1.00 -1.00  1.00 -1.00 -1.00  1.00  1.00 -1.00  1.00 -1.00 -1.00  1.00
E_1g   2.00  1.00 -1.00 -2.00  0.00  0.00  2.00  1.00 -1.00 -2.00  0.00  0.00
E_2g   2.00 -1.00 -1.00  2.00  0.00  0.00  2.00 -1.00 -1.00  2.00  0.00  0.00
A_1u   1.00  1.00  1.00  1.00  1.00  1.00 -1.00 -1.00 -1.00 -1.00 -1.00 -1.00
A_2u   1.00  1.00  1.00  1.00 -1.00 -1.00 -1.00 -1.00 -1.00 -1.00  1.00  1.00
B_1u   1.00 -1.00  1.00 -1.00  1.00 -1.00 -1.00  1.00 -1.00  1.00 -1.00  1.00
B_2u   1.00 -1.00  1.00 -1.00 -1.00  1.00 -1.00  1.00 -1.00  1.00  1.00 -1.00
E_1u   2.00  1.00 -1.00 -2.00  0.00  0.00 -2.00 -1.00  1.00  2.00  0.00  0.00
E_2u   2.00 -1.00 -1.00  2.00  0.00  0.00 -2.00  1.00  1.00 -2.00  0.00  0.00

     the symmetry operations in each class and the name of the first element:

     E        1
          identity                                               
     2C6      5    6
           60 deg rotation - cryst. axis [0,0,1]                 
     2C3      7    8
          120 deg rotation - cryst. axis [0,0,1]                 
     C2       2
          180 deg rotation - cart. axis [0,0,1]                  
     3C2'     4   12   11
          180 deg rotation - cart. axis [1,0,0]                  
     3C2''    3    9   10
          180 deg rotation - cart. axis [0,1,0]                  
     i       13
          inversion                                              
     2S3     17   18
          inv.  60 deg rotation - cryst. axis [0,0,1]            
     2S6     19   20
          inv. 120 deg rotation - cryst. axis [0,0,1]            
     s_h     14
          inv. 180 deg rotation - cart. axis [0,0,1]             
     3s_d    16   24   23
          inv. 180 deg rotation - cart. axis [1,0,0]             
     3s_v    15   21   22
          inv. 180 deg rotation - cart. axis [0,1,0]             

   Cartesian axes

     site n.     atom                  positions (alat units)
         1           W   tau(   1) = (  -0.0000005   0.5773506   1.1322981  )
         2           W   tau(   2) = (   0.5000005   0.2886748   3.3968987  )
         3           Se  tau(   3) = (   0.5000005   0.2886748   1.6354393  )
         4           Se  tau(   4) = (  -0.0000005   0.5773506   3.9000354  )
         5           Se  tau(   5) = (   0.5000005   0.2886748   0.6291614  )
         6           Se  tau(   6) = (  -0.0000005   0.5773506   2.8937575  )

   Crystallographic axes

     site n.     atom                  positions (cryst. coord.)
         1           W   tau(   1) = (  0.3333330  0.6666670  0.2499990  )
         2           W   tau(   2) = (  0.6666670  0.3333330  0.7499980  )
         3           Se  tau(   3) = (  0.6666670  0.3333330  0.3610871  )
         4           Se  tau(   4) = (  0.3333330  0.6666670  0.8610851  )
         5           Se  tau(   5) = (  0.6666670  0.3333330  0.1389119  )
         6           Se  tau(   6) = (  0.3333330  0.6666670  0.6389099  )

     number of k points=   270
                       cart. coord. in units 2pi/alat
        k(    1) = (   0.0000000   0.0000000   0.0000000), wk =   0.0004883
        k(    2) = (   0.0000000   0.0000000   0.0137993), wk =   0.0009766
        k(    3) = (   0.0000000   0.0000000   0.0275986), wk =   0.0009766
        k(    4) = (   0.0000000   0.0000000   0.0413979), wk =   0.0009766
        k(    5) = (   0.0000000   0.0000000   0.0551973), wk =   0.0009766
        k(    6) = (   0.0000000   0.0000000   0.0689966), wk =   0.0009766
        k(    7) = (   0.0000000   0.0000000   0.0827959), wk =   0.0009766
        k(    8) = (   0.0000000   0.0000000   0.0965952), wk =   0.0009766
        k(    9) = (   0.0000000   0.0000000  -0.1103945), wk =   0.0004883
        k(   10) = (   0.0000000   0.0721688   0.0000000), wk =   0.0029297
        k(   11) = (   0.0000000   0.0721688   0.0137993), wk =   0.0058594
        k(   12) = (   0.0000000   0.0721688   0.0275986), wk =   0.0058594
        k(   13) = (   0.0000000   0.0721688   0.0413979), wk =   0.0058594
        k(   14) = (   0.0000000   0.0721688   0.0551973), wk =   0.0058594
        k(   15) = (   0.0000000   0.0721688   0.0689966), wk =   0.0058594
        k(   16) = (   0.0000000   0.0721688   0.0827959), wk =   0.0058594
        k(   17) = (   0.0000000   0.0721688   0.0965952), wk =   0.0058594
        k(   18) = (   0.0000000   0.0721688  -0.1103945), wk =   0.0029297
        k(   19) = (   0.0000000   0.1443376   0.0000000), wk =   0.0029297
        k(   20) = (   0.0000000   0.1443376   0.0137993), wk =   0.0058594
        k(   21) = (   0.0000000   0.1443376   0.0275986), wk =   0.0058594
        k(   22) = (   0.0000000   0.1443376   0.0413979), wk =   0.0058594
        k(   23) = (   0.0000000   0.1443376   0.0551973), wk =   0.0058594
        k(   24) = (   0.0000000   0.1443376   0.0689966), wk =   0.0058594
        k(   25) = (   0.0000000   0.1443376   0.0827959), wk =   0.0058594
        k(   26) = (   0.0000000   0.1443376   0.0965952), wk =   0.0058594
        k(   27) = (   0.0000000   0.1443376  -0.1103945), wk =   0.0029297
        k(   28) = (   0.0000000   0.2165064   0.0000000), wk =   0.0029297
        k(   29) = (   0.0000000   0.2165064   0.0137993), wk =   0.0058594
        k(   30) = (   0.0000000   0.2165064   0.0275986), wk =   0.0058594
        k(   31) = (   0.0000000   0.2165064   0.0413979), wk =   0.0058594
        k(   32) = (   0.0000000   0.2165064   0.0551973), wk =   0.0058594
        k(   33) = (   0.0000000   0.2165064   0.0689966), wk =   0.0058594
        k(   34) = (   0.0000000   0.2165064   0.0827959), wk =   0.0058594
        k(   35) = (   0.0000000   0.2165064   0.0965952), wk =   0.0058594
        k(   36) = (   0.0000000   0.2165064  -0.1103945), wk =   0.0029297
        k(   37) = (   0.0000000   0.2886751   0.0000000), wk =   0.0029297
        k(   38) = (   0.0000000   0.2886751   0.0137993), wk =   0.0058594
        k(   39) = (   0.0000000   0.2886751   0.0275986), wk =   0.0058594
        k(   40) = (   0.0000000   0.2886751   0.0413979), wk =   0.0058594
        k(   41) = (   0.0000000   0.2886751   0.0551973), wk =   0.0058594
        k(   42) = (   0.0000000   0.2886751   0.0689966), wk =   0.0058594
        k(   43) = (   0.0000000   0.2886751   0.0827959), wk =   0.0058594
        k(   44) = (   0.0000000   0.2886751   0.0965952), wk =   0.0058594
        k(   45) = (   0.0000000   0.2886751  -0.1103945), wk =   0.0029297
        k(   46) = (   0.0000000   0.3608439   0.0000000), wk =   0.0029297
        k(   47) = (   0.0000000   0.3608439   0.0137993), wk =   0.0058594
        k(   48) = (   0.0000000   0.3608439   0.0275986), wk =   0.0058594
        k(   49) = (   0.0000000   0.3608439   0.0413979), wk =   0.0058594
        k(   50) = (   0.0000000   0.3608439   0.0551973), wk =   0.0058594
        k(   51) = (   0.0000000   0.3608439   0.0689966), wk =   0.0058594
        k(   52) = (   0.0000000   0.3608439   0.0827959), wk =   0.0058594
        k(   53) = (   0.0000000   0.3608439   0.0965952), wk =   0.0058594
        k(   54) = (   0.0000000   0.3608439  -0.1103945), wk =   0.0029297
        k(   55) = (   0.0000000   0.4330127   0.0000000), wk =   0.0029297
        k(   56) = (   0.0000000   0.4330127   0.0137993), wk =   0.0058594
        k(   57) = (   0.0000000   0.4330127   0.0275986), wk =   0.0058594
        k(   58) = (   0.0000000   0.4330127   0.0413979), wk =   0.0058594
        k(   59) = (   0.0000000   0.4330127   0.0551973), wk =   0.0058594
        k(   60) = (   0.0000000   0.4330127   0.0689966), wk =   0.0058594
        k(   61) = (   0.0000000   0.4330127   0.0827959), wk =   0.0058594
        k(   62) = (   0.0000000   0.4330127   0.0965952), wk =   0.0058594
        k(   63) = (   0.0000000   0.4330127  -0.1103945), wk =   0.0029297
        k(   64) = (   0.0000000   0.5051815   0.0000000), wk =   0.0029297
        k(   65) = (   0.0000000   0.5051815   0.0137993), wk =   0.0058594
        k(   66) = (   0.0000000   0.5051815   0.0275986), wk =   0.0058594
        k(   67) = (   0.0000000   0.5051815   0.0413979), wk =   0.0058594
        k(   68) = (   0.0000000   0.5051815   0.0551973), wk =   0.0058594
        k(   69) = (   0.0000000   0.5051815   0.0689966), wk =   0.0058594
        k(   70) = (   0.0000000   0.5051815   0.0827959), wk =   0.0058594
        k(   71) = (   0.0000000   0.5051815   0.0965952), wk =   0.0058594
        k(   72) = (   0.0000000   0.5051815  -0.1103945), wk =   0.0029297
        k(   73) = (   0.0000000  -0.5773503   0.0000000), wk =   0.0014648
        k(   74) = (   0.0000000  -0.5773503   0.0137993), wk =   0.0029297
        k(   75) = (   0.0000000  -0.5773503   0.0275986), wk =   0.0029297
        k(   76) = (   0.0000000  -0.5773503   0.0413979), wk =   0.0029297
        k(   77) = (   0.0000000  -0.5773503   0.0551973), wk =   0.0029297
        k(   78) = (   0.0000000  -0.5773503   0.0689966), wk =   0.0029297
        k(   79) = (   0.0000000  -0.5773503   0.0827959), wk =   0.0029297
        k(   80) = (   0.0000000  -0.5773503   0.0965952), wk =   0.0029297
        k(   81) = (   0.0000000  -0.5773503  -0.1103945), wk =   0.0014648
        k(   82) = (   0.0625000   0.1082532   0.0000000), wk =   0.0029297
        k(   83) = (   0.0625000   0.1082532   0.0137993), wk =   0.0058594
        k(   84) = (   0.0625000   0.1082532   0.0275986), wk =   0.0058594
        k(   85) = (   0.0625000   0.1082532   0.0413979), wk =   0.0058594
        k(   86) = (   0.0625000   0.1082532   0.0551973), wk =   0.0058594
        k(   87) = (   0.0625000   0.1082532   0.0689966), wk =   0.0058594
        k(   88) = (   0.0625000   0.1082532   0.0827959), wk =   0.0058594
        k(   89) = (   0.0625000   0.1082532   0.0965952), wk =   0.0058594
        k(   90) = (   0.0625000   0.1082532  -0.1103945), wk =   0.0029297
        k(   91) = (   0.0625000   0.1804220   0.0000000), wk =   0.0058594
        k(   92) = (   0.0625000   0.1804220   0.0137993), wk =   0.0117188
        k(   93) = (   0.0625000   0.1804220   0.0275986), wk =   0.0117188
        k(   94) = (   0.0625000   0.1804220   0.0413979), wk =   0.0117188
        k(   95) = (   0.0625000   0.1804220   0.0551973), wk =   0.0117188
        k(   96) = (   0.0625000   0.1804220   0.0689966), wk =   0.0117188
        k(   97) = (   0.0625000   0.1804220   0.0827959), wk =   0.0117188
        k(   98) = (   0.0625000   0.1804220   0.0965952), wk =   0.0117188
        k(   99) = (   0.0625000   0.1804220  -0.1103945), wk =   0.0058594
        k(  100) = (   0.0625000   0.2525907   0.0000000), wk =   0.0058594
        k(  101) = (   0.0625000   0.2525907   0.0137993), wk =   0.0117188
        k(  102) = (   0.0625000   0.2525907   0.0275986), wk =   0.0117188
        k(  103) = (   0.0625000   0.2525907   0.0413979), wk =   0.0117188
        k(  104) = (   0.0625000   0.2525907   0.0551973), wk =   0.0117188
        k(  105) = (   0.0625000   0.2525907   0.0689966), wk =   0.0117188
        k(  106) = (   0.0625000   0.2525907   0.0827959), wk =   0.0117188
        k(  107) = (   0.0625000   0.2525907   0.0965952), wk =   0.0117188
        k(  108) = (   0.0625000   0.2525907  -0.1103945), wk =   0.0058594
        k(  109) = (   0.0625000   0.3247595   0.0000000), wk =   0.0058594
        k(  110) = (   0.0625000   0.3247595   0.0137993), wk =   0.0117188
        k(  111) = (   0.0625000   0.3247595   0.0275986), wk =   0.0117188
        k(  112) = (   0.0625000   0.3247595   0.0413979), wk =   0.0117188
        k(  113) = (   0.0625000   0.3247595   0.0551973), wk =   0.0117188
        k(  114) = (   0.0625000   0.3247595   0.0689966), wk =   0.0117188
        k(  115) = (   0.0625000   0.3247595   0.0827959), wk =   0.0117188
        k(  116) = (   0.0625000   0.3247595   0.0965952), wk =   0.0117188
        k(  117) = (   0.0625000   0.3247595  -0.1103945), wk =   0.0058594
        k(  118) = (   0.0625000   0.3969283   0.0000000), wk =   0.0058594
        k(  119) = (   0.0625000   0.3969283   0.0137993), wk =   0.0117188
        k(  120) = (   0.0625000   0.3969283   0.0275986), wk =   0.0117188
        k(  121) = (   0.0625000   0.3969283   0.0413979), wk =   0.0117188
        k(  122) = (   0.0625000   0.3969283   0.0551973), wk =   0.0117188
        k(  123) = (   0.0625000   0.3969283   0.0689966), wk =   0.0117188
        k(  124) = (   0.0625000   0.3969283   0.0827959), wk =   0.0117188
        k(  125) = (   0.0625000   0.3969283   0.0965952), wk =   0.0117188
        k(  126) = (   0.0625000   0.3969283  -0.1103945), wk =   0.0058594
        k(  127) = (   0.0625000   0.4690971   0.0000000), wk =   0.0058594
        k(  128) = (   0.0625000   0.4690971   0.0137993), wk =   0.0117188
        k(  129) = (   0.0625000   0.4690971   0.0275986), wk =   0.0117188
        k(  130) = (   0.0625000   0.4690971   0.0413979), wk =   0.0117188
        k(  131) = (   0.0625000   0.4690971   0.0551973), wk =   0.0117188
        k(  132) = (   0.0625000   0.4690971   0.0689966), wk =   0.0117188
        k(  133) = (   0.0625000   0.4690971   0.0827959), wk =   0.0117188
        k(  134) = (   0.0625000   0.4690971   0.0965952), wk =   0.0117188
        k(  135) = (   0.0625000   0.4690971  -0.1103945), wk =   0.0058594
        k(  136) = (   0.0625000   0.5412659   0.0000000), wk =   0.0058594
        k(  137) = (   0.0625000   0.5412659   0.0137993), wk =   0.0117188
        k(  138) = (   0.0625000   0.5412659   0.0275986), wk =   0.0117188
        k(  139) = (   0.0625000   0.5412659   0.0413979), wk =   0.0117188
        k(  140) = (   0.0625000   0.5412659   0.0551973), wk =   0.0117188
        k(  141) = (   0.0625000   0.5412659   0.0689966), wk =   0.0117188
        k(  142) = (   0.0625000   0.5412659   0.0827959), wk =   0.0117188
        k(  143) = (   0.0625000   0.5412659   0.0965952), wk =   0.0117188
        k(  144) = (   0.0625000   0.5412659  -0.1103945), wk =   0.0058594
        k(  145) = (   0.1250000   0.2165064   0.0000000), wk =   0.0029297
        k(  146) = (   0.1250000   0.2165064   0.0137993), wk =   0.0058594
        k(  147) = (   0.1250000   0.2165064   0.0275986), wk =   0.0058594
        k(  148) = (   0.1250000   0.2165064   0.0413979), wk =   0.0058594
        k(  149) = (   0.1250000   0.2165064   0.0551973), wk =   0.0058594
        k(  150) = (   0.1250000   0.2165064   0.0689966), wk =   0.0058594
        k(  151) = (   0.1250000   0.2165064   0.0827959), wk =   0.0058594
        k(  152) = (   0.1250000   0.2165064   0.0965952), wk =   0.0058594
        k(  153) = (   0.1250000   0.2165064  -0.1103945), wk =   0.0029297
        k(  154) = (   0.1250000   0.2886751   0.0000000), wk =   0.0058594
        k(  155) = (   0.1250000   0.2886751   0.0137993), wk =   0.0117188
        k(  156) = (   0.1250000   0.2886751   0.0275986), wk =   0.0117188
        k(  157) = (   0.1250000   0.2886751   0.0413979), wk =   0.0117188
        k(  158) = (   0.1250000   0.2886751   0.0551973), wk =   0.0117188
        k(  159) = (   0.1250000   0.2886751   0.0689966), wk =   0.0117188
        k(  160) = (   0.1250000   0.2886751   0.0827959), wk =   0.0117188
        k(  161) = (   0.1250000   0.2886751   0.0965952), wk =   0.0117188
        k(  162) = (   0.1250000   0.2886751  -0.1103945), wk =   0.0058594
        k(  163) = (   0.1250000   0.3608439   0.0000000), wk =   0.0058594
        k(  164) = (   0.1250000   0.3608439   0.0137993), wk =   0.0117188
        k(  165) = (   0.1250000   0.3608439   0.0275986), wk =   0.0117188
        k(  166) = (   0.1250000   0.3608439   0.0413979), wk =   0.0117188
        k(  167) = (   0.1250000   0.3608439   0.0551973), wk =   0.0117188
        k(  168) = (   0.1250000   0.3608439   0.0689966), wk =   0.0117188
        k(  169) = (   0.1250000   0.3608439   0.0827959), wk =   0.0117188
        k(  170) = (   0.1250000   0.3608439   0.0965952), wk =   0.0117188
        k(  171) = (   0.1250000   0.3608439  -0.1103945), wk =   0.0058594
        k(  172) = (   0.1250000   0.4330127   0.0000000), wk =   0.0058594
        k(  173) = (   0.1250000   0.4330127   0.0137993), wk =   0.0117188
        k(  174) = (   0.1250000   0.4330127   0.0275986), wk =   0.0117188
        k(  175) = (   0.1250000   0.4330127   0.0413979), wk =   0.0117188
        k(  176) = (   0.1250000   0.4330127   0.0551973), wk =   0.0117188
        k(  177) = (   0.1250000   0.4330127   0.0689966), wk =   0.0117188
        k(  178) = (   0.1250000   0.4330127   0.0827959), wk =   0.0117188
        k(  179) = (   0.1250000   0.4330127   0.0965952), wk =   0.0117188
        k(  180) = (   0.1250000   0.4330127  -0.1103945), wk =   0.0058594
        k(  181) = (   0.1250000   0.5051815   0.0000000), wk =   0.0058594
        k(  182) = (   0.1250000   0.5051815   0.0137993), wk =   0.0117188
        k(  183) = (   0.1250000   0.5051815   0.0275986), wk =   0.0117188
        k(  184) = (   0.1250000   0.5051815   0.0413979), wk =   0.0117188
        k(  185) = (   0.1250000   0.5051815   0.0551973), wk =   0.0117188
        k(  186) = (   0.1250000   0.5051815   0.0689966), wk =   0.0117188
        k(  187) = (   0.1250000   0.5051815   0.0827959), wk =   0.0117188
        k(  188) = (   0.1250000   0.5051815   0.0965952), wk =   0.0117188
        k(  189) = (   0.1250000   0.5051815  -0.1103945), wk =   0.0058594
        k(  190) = (   0.1250000   0.5773503   0.0000000), wk =   0.0029297
        k(  191) = (   0.1250000   0.5773503   0.0137993), wk =   0.0058594
        k(  192) = (   0.1250000   0.5773503   0.0275986), wk =   0.0058594
        k(  193) = (   0.1250000   0.5773503   0.0413979), wk =   0.0058594
        k(  194) = (   0.1250000   0.5773503   0.0551973), wk =   0.0058594
        k(  195) = (   0.1250000   0.5773503   0.0689966), wk =   0.0058594
        k(  196) = (   0.1250000   0.5773503   0.0827959), wk =   0.0058594
        k(  197) = (   0.1250000   0.5773503   0.0965952), wk =   0.0058594
        k(  198) = (   0.1250000   0.5773503  -0.1103945), wk =   0.0029297
        k(  199) = (   0.1875000   0.3247595   0.0000000), wk =   0.0029297
        k(  200) = (   0.1875000   0.3247595   0.0137993), wk =   0.0058594
        k(  201) = (   0.1875000   0.3247595   0.0275986), wk =   0.0058594
        k(  202) = (   0.1875000   0.3247595   0.0413979), wk =   0.0058594
        k(  203) = (   0.1875000   0.3247595   0.0551973), wk =   0.0058594
        k(  204) = (   0.1875000   0.3247595   0.0689966), wk =   0.0058594
        k(  205) = (   0.1875000   0.3247595   0.0827959), wk =   0.0058594
        k(  206) = (   0.1875000   0.3247595   0.0965952), wk =   0.0058594
        k(  207) = (   0.1875000   0.3247595  -0.1103945), wk =   0.0029297
        k(  208) = (   0.1875000   0.3969283   0.0000000), wk =   0.0058594
        k(  209) = (   0.1875000   0.3969283   0.0137993), wk =   0.0117188
        k(  210) = (   0.1875000   0.3969283   0.0275986), wk =   0.0117188
        k(  211) = (   0.1875000   0.3969283   0.0413979), wk =   0.0117188
        k(  212) = (   0.1875000   0.3969283   0.0551973), wk =   0.0117188
        k(  213) = (   0.1875000   0.3969283   0.0689966), wk =   0.0117188
        k(  214) = (   0.1875000   0.3969283   0.0827959), wk =   0.0117188
        k(  215) = (   0.1875000   0.3969283   0.0965952), wk =   0.0117188
        k(  216) = (   0.1875000   0.3969283  -0.1103945), wk =   0.0058594
        k(  217) = (   0.1875000   0.4690971   0.0000000), wk =   0.0058594
        k(  218) = (   0.1875000   0.4690971   0.0137993), wk =   0.0117188
        k(  219) = (   0.1875000   0.4690971   0.0275986), wk =   0.0117188
        k(  220) = (   0.1875000   0.4690971   0.0413979), wk =   0.0117188
        k(  221) = (   0.1875000   0.4690971   0.0551973), wk =   0.0117188
        k(  222) = (   0.1875000   0.4690971   0.0689966), wk =   0.0117188
        k(  223) = (   0.1875000   0.4690971   0.0827959), wk =   0.0117188
        k(  224) = (   0.1875000   0.4690971   0.0965952), wk =   0.0117188
        k(  225) = (   0.1875000   0.4690971  -0.1103945), wk =   0.0058594
        k(  226) = (   0.1875000   0.5412659   0.0000000), wk =   0.0058594
        k(  227) = (   0.1875000   0.5412659   0.0137993), wk =   0.0117188
        k(  228) = (   0.1875000   0.5412659   0.0275986), wk =   0.0117188
        k(  229) = (   0.1875000   0.5412659   0.0413979), wk =   0.0117188
        k(  230) = (   0.1875000   0.5412659   0.0551973), wk =   0.0117188
        k(  231) = (   0.1875000   0.5412659   0.0689966), wk =   0.0117188
        k(  232) = (   0.1875000   0.5412659   0.0827959), wk =   0.0117188
        k(  233) = (   0.1875000   0.5412659   0.0965952), wk =   0.0117188
        k(  234) = (   0.1875000   0.5412659  -0.1103945), wk =   0.0058594
        k(  235) = (   0.2500000   0.4330127   0.0000000), wk =   0.0029297
        k(  236) = (   0.2500000   0.4330127   0.0137993), wk =   0.0058594
        k(  237) = (   0.2500000   0.4330127   0.0275986), wk =   0.0058594
        k(  238) = (   0.2500000   0.4330127   0.0413979), wk =   0.0058594
        k(  239) = (   0.2500000   0.4330127   0.0551973), wk =   0.0058594
        k(  240) = (   0.2500000   0.4330127   0.0689966), wk =   0.0058594
        k(  241) = (   0.2500000   0.4330127   0.0827959), wk =   0.0058594
        k(  242) = (   0.2500000   0.4330127   0.0965952), wk =   0.0058594
        k(  243) = (   0.2500000   0.4330127  -0.1103945), wk =   0.0029297
        k(  244) = (   0.2500000   0.5051815   0.0000000), wk =   0.0058594
        k(  245) = (   0.2500000   0.5051815   0.0137993), wk =   0.0117188
        k(  246) = (   0.2500000   0.5051815   0.0275986), wk =   0.0117188
        k(  247) = (   0.2500000   0.5051815   0.0413979), wk =   0.0117188
        k(  248) = (   0.2500000   0.5051815   0.0551973), wk =   0.0117188
        k(  249) = (   0.2500000   0.5051815   0.0689966), wk =   0.0117188
        k(  250) = (   0.2500000   0.5051815   0.0827959), wk =   0.0117188
        k(  251) = (   0.2500000   0.5051815   0.0965952), wk =   0.0117188
        k(  252) = (   0.2500000   0.5051815  -0.1103945), wk =   0.0058594
        k(  253) = (   0.2500000   0.5773503   0.0000000), wk =   0.0029297
        k(  254) = (   0.2500000   0.5773503   0.0137993), wk =   0.0058594
        k(  255) = (   0.2500000   0.5773503   0.0275986), wk =   0.0058594
        k(  256) = (   0.2500000   0.5773503   0.0413979), wk =   0.0058594
        k(  257) = (   0.2500000   0.5773503   0.0551973), wk =   0.0058594
        k(  258) = (   0.2500000   0.5773503   0.0689966), wk =   0.0058594
        k(  259) = (   0.2500000   0.5773503   0.0827959), wk =   0.0058594
        k(  260) = (   0.2500000   0.5773503   0.0965952), wk =   0.0058594
        k(  261) = (   0.2500000   0.5773503  -0.1103945), wk =   0.0029297
        k(  262) = (   0.3125000   0.5412659   0.0000000), wk =   0.0029297
        k(  263) = (   0.3125000   0.5412659   0.0137993), wk =   0.0058594
        k(  264) = (   0.3125000   0.5412659   0.0275986), wk =   0.0058594
        k(  265) = (   0.3125000   0.5412659   0.0413979), wk =   0.0058594
        k(  266) = (   0.3125000   0.5412659   0.0551973), wk =   0.0058594
        k(  267) = (   0.3125000   0.5412659   0.0689966), wk =   0.0058594
        k(  268) = (   0.3125000   0.5412659   0.0827959), wk =   0.0058594
        k(  269) = (   0.3125000   0.5412659   0.0965952), wk =   0.0058594
        k(  270) = (   0.3125000   0.5412659  -0.1103945), wk =   0.0029297

                       cryst. coord.
        k(    1) = (   0.0000000   0.0000000   0.0000000), wk =   0.0004883
        k(    2) = (   0.0000000   0.0000000   0.0625000), wk =   0.0009766
        k(    3) = (   0.0000000   0.0000000   0.1250000), wk =   0.0009766
        k(    4) = (   0.0000000   0.0000000   0.1875000), wk =   0.0009766
        k(    5) = (   0.0000000   0.0000000   0.2500000), wk =   0.0009766
        k(    6) = (   0.0000000   0.0000000   0.3125000), wk =   0.0009766
        k(    7) = (   0.0000000   0.0000000   0.3750000), wk =   0.0009766
        k(    8) = (   0.0000000   0.0000000   0.4375000), wk =   0.0009766
        k(    9) = (   0.0000000   0.0000000  -0.5000000), wk =   0.0004883
        k(   10) = (   0.0000000   0.0625000   0.0000000), wk =   0.0029297
        k(   11) = (   0.0000000   0.0625000   0.0625000), wk =   0.0058594
        k(   12) = (   0.0000000   0.0625000   0.1250000), wk =   0.0058594
        k(   13) = (   0.0000000   0.0625000   0.1875000), wk =   0.0058594
        k(   14) = (   0.0000000   0.0625000   0.2500000), wk =   0.0058594
        k(   15) = (   0.0000000   0.0625000   0.3125000), wk =   0.0058594
        k(   16) = (   0.0000000   0.0625000   0.3750000), wk =   0.0058594
        k(   17) = (   0.0000000   0.0625000   0.4375000), wk =   0.0058594
        k(   18) = (   0.0000000   0.0625000  -0.5000000), wk =   0.0029297
        k(   19) = (   0.0000000   0.1250000   0.0000000), wk =   0.0029297
        k(   20) = (   0.0000000   0.1250000   0.0625000), wk =   0.0058594
        k(   21) = (   0.0000000   0.1250000   0.1250000), wk =   0.0058594
        k(   22) = (   0.0000000   0.1250000   0.1875000), wk =   0.0058594
        k(   23) = (   0.0000000   0.1250000   0.2500000), wk =   0.0058594
        k(   24) = (   0.0000000   0.1250000   0.3125000), wk =   0.0058594
        k(   25) = (   0.0000000   0.1250000   0.3750000), wk =   0.0058594
        k(   26) = (   0.0000000   0.1250000   0.4375000), wk =   0.0058594
        k(   27) = (   0.0000000   0.1250000  -0.5000000), wk =   0.0029297
        k(   28) = (   0.0000000   0.1875000   0.0000000), wk =   0.0029297
        k(   29) = (   0.0000000   0.1875000   0.0625000), wk =   0.0058594
        k(   30) = (   0.0000000   0.1875000   0.1250000), wk =   0.0058594
        k(   31) = (   0.0000000   0.1875000   0.1875000), wk =   0.0058594
        k(   32) = (   0.0000000   0.1875000   0.2500000), wk =   0.0058594
        k(   33) = (   0.0000000   0.1875000   0.3125000), wk =   0.0058594
        k(   34) = (   0.0000000   0.1875000   0.3750000), wk =   0.0058594
        k(   35) = (   0.0000000   0.1875000   0.4375000), wk =   0.0058594
        k(   36) = (   0.0000000   0.1875000  -0.5000000), wk =   0.0029297
        k(   37) = (   0.0000000   0.2500000   0.0000000), wk =   0.0029297
        k(   38) = (   0.0000000   0.2500000   0.0625000), wk =   0.0058594
        k(   39) = (   0.0000000   0.2500000   0.1250000), wk =   0.0058594
        k(   40) = (   0.0000000   0.2500000   0.1875000), wk =   0.0058594
        k(   41) = (   0.0000000   0.2500000   0.2500000), wk =   0.0058594
        k(   42) = (   0.0000000   0.2500000   0.3125000), wk =   0.0058594
        k(   43) = (   0.0000000   0.2500000   0.3750000), wk =   0.0058594
        k(   44) = (   0.0000000   0.2500000   0.4375000), wk =   0.0058594
        k(   45) = (   0.0000000   0.2500000  -0.5000000), wk =   0.0029297
        k(   46) = (   0.0000000   0.3125000   0.0000000), wk =   0.0029297
        k(   47) = (   0.0000000   0.3125000   0.0625000), wk =   0.0058594
        k(   48) = (   0.0000000   0.3125000   0.1250000), wk =   0.0058594
        k(   49) = (   0.0000000   0.3125000   0.1875000), wk =   0.0058594
        k(   50) = (   0.0000000   0.3125000   0.2500000), wk =   0.0058594
        k(   51) = (   0.0000000   0.3125000   0.3125000), wk =   0.0058594
        k(   52) = (   0.0000000   0.3125000   0.3750000), wk =   0.0058594
        k(   53) = (   0.0000000   0.3125000   0.4375000), wk =   0.0058594
        k(   54) = (   0.0000000   0.3125000  -0.5000000), wk =   0.0029297
        k(   55) = (   0.0000000   0.3750000   0.0000000), wk =   0.0029297
        k(   56) = (   0.0000000   0.3750000   0.0625000), wk =   0.0058594
        k(   57) = (   0.0000000   0.3750000   0.1250000), wk =   0.0058594
        k(   58) = (   0.0000000   0.3750000   0.1875000), wk =   0.0058594
        k(   59) = (   0.0000000   0.3750000   0.2500000), wk =   0.0058594
        k(   60) = (   0.0000000   0.3750000   0.3125000), wk =   0.0058594
        k(   61) = (   0.0000000   0.3750000   0.3750000), wk =   0.0058594
        k(   62) = (   0.0000000   0.3750000   0.4375000), wk =   0.0058594
        k(   63) = (   0.0000000   0.3750000  -0.5000000), wk =   0.0029297
        k(   64) = (   0.0000000   0.4375000   0.0000000), wk =   0.0029297
        k(   65) = (   0.0000000   0.4375000   0.0625000), wk =   0.0058594
        k(   66) = (   0.0000000   0.4375000   0.1250000), wk =   0.0058594
        k(   67) = (   0.0000000   0.4375000   0.1875000), wk =   0.0058594
        k(   68) = (   0.0000000   0.4375000   0.2500000), wk =   0.0058594
        k(   69) = (   0.0000000   0.4375000   0.3125000), wk =   0.0058594
        k(   70) = (   0.0000000   0.4375000   0.3750000), wk =   0.0058594
        k(   71) = (   0.0000000   0.4375000   0.4375000), wk =   0.0058594
        k(   72) = (   0.0000000   0.4375000  -0.5000000), wk =   0.0029297
        k(   73) = (   0.0000000  -0.5000000   0.0000000), wk =   0.0014648
        k(   74) = (   0.0000000  -0.5000000   0.0625000), wk =   0.0029297
        k(   75) = (   0.0000000  -0.5000000   0.1250000), wk =   0.0029297
        k(   76) = (   0.0000000  -0.5000000   0.1875000), wk =   0.0029297
        k(   77) = (   0.0000000  -0.5000000   0.2500000), wk =   0.0029297
        k(   78) = (   0.0000000  -0.5000000   0.3125000), wk =   0.0029297
        k(   79) = (   0.0000000  -0.5000000   0.3750000), wk =   0.0029297
        k(   80) = (   0.0000000  -0.5000000   0.4375000), wk =   0.0029297
        k(   81) = (   0.0000000  -0.5000000  -0.5000000), wk =   0.0014648
        k(   82) = (   0.0625000   0.0625000   0.0000000), wk =   0.0029297
        k(   83) = (   0.0625000   0.0625000   0.0625000), wk =   0.0058594
        k(   84) = (   0.0625000   0.0625000   0.1250000), wk =   0.0058594
        k(   85) = (   0.0625000   0.0625000   0.1875000), wk =   0.0058594
        k(   86) = (   0.0625000   0.0625000   0.2500000), wk =   0.0058594
        k(   87) = (   0.0625000   0.0625000   0.3125000), wk =   0.0058594
        k(   88) = (   0.0625000   0.0625000   0.3750000), wk =   0.0058594
        k(   89) = (   0.0625000   0.0625000   0.4375000), wk =   0.0058594
        k(   90) = (   0.0625000   0.0625000  -0.5000000), wk =   0.0029297
        k(   91) = (   0.0625000   0.1250000   0.0000000), wk =   0.0058594
        k(   92) = (   0.0625000   0.1250000   0.0625000), wk =   0.0117188
        k(   93) = (   0.0625000   0.1250000   0.1250000), wk =   0.0117188
        k(   94) = (   0.0625000   0.1250000   0.1875000), wk =   0.0117188
        k(   95) = (   0.0625000   0.1250000   0.2500000), wk =   0.0117188
        k(   96) = (   0.0625000   0.1250000   0.3125000), wk =   0.0117188
        k(   97) = (   0.0625000   0.1250000   0.3750000), wk =   0.0117188
        k(   98) = (   0.0625000   0.1250000   0.4375000), wk =   0.0117188
        k(   99) = (   0.0625000   0.1250000  -0.5000000), wk =   0.0058594
        k(  100) = (   0.0625000   0.1875000   0.0000000), wk =   0.0058594
        k(  101) = (   0.0625000   0.1875000   0.0625000), wk =   0.0117188
        k(  102) = (   0.0625000   0.1875000   0.1250000), wk =   0.0117188
        k(  103) = (   0.0625000   0.1875000   0.1875000), wk =   0.0117188
        k(  104) = (   0.0625000   0.1875000   0.2500000), wk =   0.0117188
        k(  105) = (   0.0625000   0.1875000   0.3125000), wk =   0.0117188
        k(  106) = (   0.0625000   0.1875000   0.3750000), wk =   0.0117188
        k(  107) = (   0.0625000   0.1875000   0.4375000), wk =   0.0117188
        k(  108) = (   0.0625000   0.1875000  -0.5000000), wk =   0.0058594
        k(  109) = (   0.0625000   0.2500000   0.0000000), wk =   0.0058594
        k(  110) = (   0.0625000   0.2500000   0.0625000), wk =   0.0117188
        k(  111) = (   0.0625000   0.2500000   0.1250000), wk =   0.0117188
        k(  112) = (   0.0625000   0.2500000   0.1875000), wk =   0.0117188
        k(  113) = (   0.0625000   0.2500000   0.2500000), wk =   0.0117188
        k(  114) = (   0.0625000   0.2500000   0.3125000), wk =   0.0117188
        k(  115) = (   0.0625000   0.2500000   0.3750000), wk =   0.0117188
        k(  116) = (   0.0625000   0.2500000   0.4375000), wk =   0.0117188
        k(  117) = (   0.0625000   0.2500000  -0.5000000), wk =   0.0058594
        k(  118) = (   0.0625000   0.3125000   0.0000000), wk =   0.0058594
        k(  119) = (   0.0625000   0.3125000   0.0625000), wk =   0.0117188
        k(  120) = (   0.0625000   0.3125000   0.1250000), wk =   0.0117188
        k(  121) = (   0.0625000   0.3125000   0.1875000), wk =   0.0117188
        k(  122) = (   0.0625000   0.3125000   0.2500000), wk =   0.0117188
        k(  123) = (   0.0625000   0.3125000   0.3125000), wk =   0.0117188
        k(  124) = (   0.0625000   0.3125000   0.3750000), wk =   0.0117188
        k(  125) = (   0.0625000   0.3125000   0.4375000), wk =   0.0117188
        k(  126) = (   0.0625000   0.3125000  -0.5000000), wk =   0.0058594
        k(  127) = (   0.0625000   0.3750000   0.0000000), wk =   0.0058594
        k(  128) = (   0.0625000   0.3750000   0.0625000), wk =   0.0117188
        k(  129) = (   0.0625000   0.3750000   0.1250000), wk =   0.0117188
        k(  130) = (   0.0625000   0.3750000   0.1875000), wk =   0.0117188
        k(  131) = (   0.0625000   0.3750000   0.2500000), wk =   0.0117188
        k(  132) = (   0.0625000   0.3750000   0.3125000), wk =   0.0117188
        k(  133) = (   0.0625000   0.3750000   0.3750000), wk =   0.0117188
        k(  134) = (   0.0625000   0.3750000   0.4375000), wk =   0.0117188
        k(  135) = (   0.0625000   0.3750000  -0.5000000), wk =   0.0058594
        k(  136) = (   0.0625000   0.4375000   0.0000000), wk =   0.0058594
        k(  137) = (   0.0625000   0.4375000   0.0625000), wk =   0.0117188
        k(  138) = (   0.0625000   0.4375000   0.1250000), wk =   0.0117188
        k(  139) = (   0.0625000   0.4375000   0.1875000), wk =   0.0117188
        k(  140) = (   0.0625000   0.4375000   0.2500000), wk =   0.0117188
        k(  141) = (   0.0625000   0.4375000   0.3125000), wk =   0.0117188
        k(  142) = (   0.0625000   0.4375000   0.3750000), wk =   0.0117188
        k(  143) = (   0.0625000   0.4375000   0.4375000), wk =   0.0117188
        k(  144) = (   0.0625000   0.4375000  -0.5000000), wk =   0.0058594
        k(  145) = (   0.1250000   0.1250000   0.0000000), wk =   0.0029297
        k(  146) = (   0.1250000   0.1250000   0.0625000), wk =   0.0058594
        k(  147) = (   0.1250000   0.1250000   0.1250000), wk =   0.0058594
        k(  148) = (   0.1250000   0.1250000   0.1875000), wk =   0.0058594
        k(  149) = (   0.1250000   0.1250000   0.2500000), wk =   0.0058594
        k(  150) = (   0.1250000   0.1250000   0.3125000), wk =   0.0058594
        k(  151) = (   0.1250000   0.1250000   0.3750000), wk =   0.0058594
        k(  152) = (   0.1250000   0.1250000   0.4375000), wk =   0.0058594
        k(  153) = (   0.1250000   0.1250000  -0.5000000), wk =   0.0029297
        k(  154) = (   0.1250000   0.1875000   0.0000000), wk =   0.0058594
        k(  155) = (   0.1250000   0.1875000   0.0625000), wk =   0.0117188
        k(  156) = (   0.1250000   0.1875000   0.1250000), wk =   0.0117188
        k(  157) = (   0.1250000   0.1875000   0.1875000), wk =   0.0117188
        k(  158) = (   0.1250000   0.1875000   0.2500000), wk =   0.0117188
        k(  159) = (   0.1250000   0.1875000   0.3125000), wk =   0.0117188
        k(  160) = (   0.1250000   0.1875000   0.3750000), wk =   0.0117188
        k(  161) = (   0.1250000   0.1875000   0.4375000), wk =   0.0117188
        k(  162) = (   0.1250000   0.1875000  -0.5000000), wk =   0.0058594
        k(  163) = (   0.1250000   0.2500000   0.0000000), wk =   0.0058594
        k(  164) = (   0.1250000   0.2500000   0.0625000), wk =   0.0117188
        k(  165) = (   0.1250000   0.2500000   0.1250000), wk =   0.0117188
        k(  166) = (   0.1250000   0.2500000   0.1875000), wk =   0.0117188
        k(  167) = (   0.1250000   0.2500000   0.2500000), wk =   0.0117188
        k(  168) = (   0.1250000   0.2500000   0.3125000), wk =   0.0117188
        k(  169) = (   0.1250000   0.2500000   0.3750000), wk =   0.0117188
        k(  170) = (   0.1250000   0.2500000   0.4375000), wk =   0.0117188
        k(  171) = (   0.1250000   0.2500000  -0.5000000), wk =   0.0058594
        k(  172) = (   0.1250000   0.3125000   0.0000000), wk =   0.0058594
        k(  173) = (   0.1250000   0.3125000   0.0625000), wk =   0.0117188
        k(  174) = (   0.1250000   0.3125000   0.1250000), wk =   0.0117188
        k(  175) = (   0.1250000   0.3125000   0.1875000), wk =   0.0117188
        k(  176) = (   0.1250000   0.3125000   0.2500000), wk =   0.0117188
        k(  177) = (   0.1250000   0.3125000   0.3125000), wk =   0.0117188
        k(  178) = (   0.1250000   0.3125000   0.3750000), wk =   0.0117188
        k(  179) = (   0.1250000   0.3125000   0.4375000), wk =   0.0117188
        k(  180) = (   0.1250000   0.3125000  -0.5000000), wk =   0.0058594
        k(  181) = (   0.1250000   0.3750000   0.0000000), wk =   0.0058594
        k(  182) = (   0.1250000   0.3750000   0.0625000), wk =   0.0117188
        k(  183) = (   0.1250000   0.3750000   0.1250000), wk =   0.0117188
        k(  184) = (   0.1250000   0.3750000   0.1875000), wk =   0.0117188
        k(  185) = (   0.1250000   0.3750000   0.2500000), wk =   0.0117188
        k(  186) = (   0.1250000   0.3750000   0.3125000), wk =   0.0117188
        k(  187) = (   0.1250000   0.3750000   0.3750000), wk =   0.0117188
        k(  188) = (   0.1250000   0.3750000   0.4375000), wk =   0.0117188
        k(  189) = (   0.1250000   0.3750000  -0.5000000), wk =   0.0058594
        k(  190) = (   0.1250000   0.4375000   0.0000000), wk =   0.0029297
        k(  191) = (   0.1250000   0.4375000   0.0625000), wk =   0.0058594
        k(  192) = (   0.1250000   0.4375000   0.1250000), wk =   0.0058594
        k(  193) = (   0.1250000   0.4375000   0.1875000), wk =   0.0058594
        k(  194) = (   0.1250000   0.4375000   0.2500000), wk =   0.0058594
        k(  195) = (   0.1250000   0.4375000   0.3125000), wk =   0.0058594
        k(  196) = (   0.1250000   0.4375000   0.3750000), wk =   0.0058594
        k(  197) = (   0.1250000   0.4375000   0.4375000), wk =   0.0058594
        k(  198) = (   0.1250000   0.4375000  -0.5000000), wk =   0.0029297
        k(  199) = (   0.1875000   0.1875000   0.0000000), wk =   0.0029297
        k(  200) = (   0.1875000   0.1875000   0.0625000), wk =   0.0058594
        k(  201) = (   0.1875000   0.1875000   0.1250000), wk =   0.0058594
        k(  202) = (   0.1875000   0.1875000   0.1875000), wk =   0.0058594
        k(  203) = (   0.1875000   0.1875000   0.2500000), wk =   0.0058594
        k(  204) = (   0.1875000   0.1875000   0.3125000), wk =   0.0058594
        k(  205) = (   0.1875000   0.1875000   0.3750000), wk =   0.0058594
        k(  206) = (   0.1875000   0.1875000   0.4375000), wk =   0.0058594
        k(  207) = (   0.1875000   0.1875000  -0.5000000), wk =   0.0029297
        k(  208) = (   0.1875000   0.2500000   0.0000000), wk =   0.0058594
        k(  209) = (   0.1875000   0.2500000   0.0625000), wk =   0.0117188
        k(  210) = (   0.1875000   0.2500000   0.1250000), wk =   0.0117188
        k(  211) = (   0.1875000   0.2500000   0.1875000), wk =   0.0117188
        k(  212) = (   0.1875000   0.2500000   0.2500000), wk =   0.0117188
        k(  213) = (   0.1875000   0.2500000   0.3125000), wk =   0.0117188
        k(  214) = (   0.1875000   0.2500000   0.3750000), wk =   0.0117188
        k(  215) = (   0.1875000   0.2500000   0.4375000), wk =   0.0117188
        k(  216) = (   0.1875000   0.2500000  -0.5000000), wk =   0.0058594
        k(  217) = (   0.1875000   0.3125000   0.0000000), wk =   0.0058594
        k(  218) = (   0.1875000   0.3125000   0.0625000), wk =   0.0117188
        k(  219) = (   0.1875000   0.3125000   0.1250000), wk =   0.0117188
        k(  220) = (   0.1875000   0.3125000   0.1875000), wk =   0.0117188
        k(  221) = (   0.1875000   0.3125000   0.2500000), wk =   0.0117188
        k(  222) = (   0.1875000   0.3125000   0.3125000), wk =   0.0117188
        k(  223) = (   0.1875000   0.3125000   0.3750000), wk =   0.0117188
        k(  224) = (   0.1875000   0.3125000   0.4375000), wk =   0.0117188
        k(  225) = (   0.1875000   0.3125000  -0.5000000), wk =   0.0058594
        k(  226) = (   0.1875000   0.3750000   0.0000000), wk =   0.0058594
        k(  227) = (   0.1875000   0.3750000   0.0625000), wk =   0.0117188
        k(  228) = (   0.1875000   0.3750000   0.1250000), wk =   0.0117188
        k(  229) = (   0.1875000   0.3750000   0.1875000), wk =   0.0117188
        k(  230) = (   0.1875000   0.3750000   0.2500000), wk =   0.0117188
        k(  231) = (   0.1875000   0.3750000   0.3125000), wk =   0.0117188
        k(  232) = (   0.1875000   0.3750000   0.3750000), wk =   0.0117188
        k(  233) = (   0.1875000   0.3750000   0.4375000), wk =   0.0117188
        k(  234) = (   0.1875000   0.3750000  -0.5000000), wk =   0.0058594
        k(  235) = (   0.2500000   0.2500000   0.0000000), wk =   0.0029297
        k(  236) = (   0.2500000   0.2500000   0.0625000), wk =   0.0058594
        k(  237) = (   0.2500000   0.2500000   0.1250000), wk =   0.0058594
        k(  238) = (   0.2500000   0.2500000   0.1875000), wk =   0.0058594
        k(  239) = (   0.2500000   0.2500000   0.2500000), wk =   0.0058594
        k(  240) = (   0.2500000   0.2500000   0.3125000), wk =   0.0058594
        k(  241) = (   0.2500000   0.2500000   0.3750000), wk =   0.0058594
        k(  242) = (   0.2500000   0.2500000   0.4375000), wk =   0.0058594
        k(  243) = (   0.2500000   0.2500000  -0.5000000), wk =   0.0029297
        k(  244) = (   0.2500000   0.3125000   0.0000000), wk =   0.0058594
        k(  245) = (   0.2500000   0.3125000   0.0625000), wk =   0.0117188
        k(  246) = (   0.2500000   0.3125000   0.1250000), wk =   0.0117188
        k(  247) = (   0.2500000   0.3125000   0.1875000), wk =   0.0117188
        k(  248) = (   0.2500000   0.3125000   0.2500000), wk =   0.0117188
        k(  249) = (   0.2500000   0.3125000   0.3125000), wk =   0.0117188
        k(  250) = (   0.2500000   0.3125000   0.3750000), wk =   0.0117188
        k(  251) = (   0.2500000   0.3125000   0.4375000), wk =   0.0117188
        k(  252) = (   0.2500000   0.3125000  -0.5000000), wk =   0.0058594
        k(  253) = (   0.2500000   0.3750000   0.0000000), wk =   0.0029297
        k(  254) = (   0.2500000   0.3750000   0.0625000), wk =   0.0058594
        k(  255) = (   0.2500000   0.3750000   0.1250000), wk =   0.0058594
        k(  256) = (   0.2500000   0.3750000   0.1875000), wk =   0.0058594
        k(  257) = (   0.2500000   0.3750000   0.2500000), wk =   0.0058594
        k(  258) = (   0.2500000   0.3750000   0.3125000), wk =   0.0058594
        k(  259) = (   0.2500000   0.3750000   0.3750000), wk =   0.0058594
        k(  260) = (   0.2500000   0.3750000   0.4375000), wk =   0.0058594
        k(  261) = (   0.2500000   0.3750000  -0.5000000), wk =   0.0029297
        k(  262) = (   0.3125000   0.3125000   0.0000000), wk =   0.0029297
        k(  263) = (   0.3125000   0.3125000   0.0625000), wk =   0.0058594
        k(  264) = (   0.3125000   0.3125000   0.1250000), wk =   0.0058594
        k(  265) = (   0.3125000   0.3125000   0.1875000), wk =   0.0058594
        k(  266) = (   0.3125000   0.3125000   0.2500000), wk =   0.0058594
        k(  267) = (   0.3125000   0.3125000   0.3125000), wk =   0.0058594
        k(  268) = (   0.3125000   0.3125000   0.3750000), wk =   0.0058594
        k(  269) = (   0.3125000   0.3125000   0.4375000), wk =   0.0058594
        k(  270) = (   0.3125000   0.3125000  -0.5000000), wk =   0.0029297

     Dense  grid:   170417 G-vectors     FFT dimensions: (  45,  45, 200)

     Smooth grid:    53709 G-vectors     FFT dimensions: (  30,  30, 144)

     Dynamical RAM for                 wfc:       1.18 MB

     Dynamical RAM for     wfc (w. buffer):     319.18 MB

     Dynamical RAM for           str. fact:       1.30 MB

     Dynamical RAM for           local pot:       0.00 MB

     Dynamical RAM for          nlocal pot:       2.77 MB

     Dynamical RAM for                qrad:       3.50 MB

     Dynamical RAM for          rho,v,vnew:       8.53 MB

     Dynamical RAM for               rhoin:       2.84 MB

     Dynamical RAM for            rho*nmix:      20.80 MB

     Dynamical RAM for           G-vectors:       2.54 MB

     Dynamical RAM for          h,s,v(r/c):       0.10 MB

     Dynamical RAM for          <psi|beta>:       0.08 MB

     Dynamical RAM for                 psi:       2.36 MB

     Dynamical RAM for                hpsi:       2.36 MB

     Dynamical RAM for                spsi:       2.36 MB

     Dynamical RAM for      wfcinit/wfcrot:       2.40 MB

     Dynamical RAM for           addusdens:     123.50 MB

     Estimated static dynamical RAM per process >     367.28 MB

     Estimated max dynamical RAM per process >     490.77 MB

     Estimated total dynamical RAM >       1.92 GB

     Atomic positions and unit cell read from directory:
     ./tmp/WSe2.save/


     The initial density is read from file :
     ./tmp/WSe2.save/charge-density


     negative rho (up, down):  4.645E-04 0.000E+00
     Starting wfcs from file
     Checking if some PAW data can be deallocated... 
       PAW data deallocated on    3 nodes for type:  1
       PAW data deallocated on    1 nodes for type:  2

     total cpu time spent up to now is        8.6 secs

     Self-consistent Calculation

     iteration #  1     ecut=    55.00 Ry     beta= 0.60
     Davidson diagonalization with overlap
     ethr =  1.00E-05,  avg # of iterations =  4.3

     Threshold (ethr) on eigenvalues was too large:
     Diagonalizing with lowered threshold

     Davidson diagonalization with overlap
     ethr =  1.55E-08,  avg # of iterations =  3.0

     negative rho (up, down):  5.035E-04 0.000E+00

     total cpu time spent up to now is      628.3 secs

     total energy              =   -3127.99450892 Ry
     estimated scf accuracy    <       0.00001304 Ry

     iteration #  2     ecut=    55.00 Ry     beta= 0.60
     Davidson diagonalization with overlap
     ethr =  1.42E-08,  avg # of iterations =  2.0

     negative rho (up, down):  5.231E-04 0.000E+00

     total cpu time spent up to now is      861.8 secs

     total energy              =   -3127.99451209 Ry
     estimated scf accuracy    <       0.00000115 Ry

     iteration #  3     ecut=    55.00 Ry     beta= 0.60
     Davidson diagonalization with overlap
     ethr =  1.25E-09,  avg # of iterations =  2.0

     negative rho (up, down):  5.303E-04 0.000E+00

     total cpu time spent up to now is     1074.6 secs

     total energy              =   -3127.99451226 Ry
     estimated scf accuracy    <       0.00000008 Ry

     iteration #  4     ecut=    55.00 Ry     beta= 0.60
     Davidson diagonalization with overlap
     ethr =  8.97E-11,  avg # of iterations =  2.3

     negative rho (up, down):  5.311E-04 0.000E+00

     total cpu time spent up to now is     1289.9 secs

     End of self-consistent calculation

          k = 0.0000 0.0000 0.0000 (  6733 PWs)   bands (ev):

   -64.6243 -64.6241 -38.0359 -38.0359 -38.0321 -38.0321 -38.0293 -38.0293
   -38.0258 -38.0258 -38.0025 -38.0025 -37.9988 -37.9988 -37.9959 -37.9959
   -37.9925 -37.9925 -37.9884 -37.9849 -37.9815 -37.9782 -28.8324 -28.8322
   -28.7322 -28.7322 -28.7319 -28.7319  -5.2090  -5.1799  -3.9821  -3.9294
     3.2527   3.5065   6.9540   7.1313   7.1313   7.1328   7.1329   7.8135
     8.2273   8.2275   8.2322   8.2324   8.9730   9.4561

     occupation numbers 
     1.0000   1.0000   1.0000   1.0000   1.0000   1.0000   1.0000   1.0000
     1.0000   1.0000   1.0000   1.0000   1.0000   1.0000   1.0000   1.0000
     1.0000   1.0000   1.0000   1.0000   1.0000   1.0000   1.0000   1.0000
     1.0000   1.0000   1.0000   1.0000   1.0000   1.0000   1.0000   1.0000
     1.0000   1.0000   1.0000   1.0000   1.0000   1.0000   1.0000   1.0000
     1.0000   1.0000   1.0000   1.0000   1.0000   1.0000

          k = 0.0000 0.0000 0.0138 (  6733 PWs)   bands (ev):

   -64.6243 -64.6241 -38.0359 -38.0359 -38.0321 -38.0321 -38.0293 -38.0293
   -38.0258 -38.0258 -38.0025 -38.0025 -37.9988 -37.9988 -37.9959 -37.9959
   -37.9925 -37.9925 -37.9884 -37.9849 -37.9815 -37.9782 -28.8324 -28.8322
   -28.7322 -28.7321 -28.7319 -28.7319  -5.2087  -5.1802  -3.9816  -3.9299
     3.2549   3.5038   6.9609   7.1313   7.1313   7.1328   7.1328   7.8019
     8.2274   8.2275   8.2322   8.2323   8.9812   9.4532

     occupation numbers 
     1.0000   1.0000   1.0000   1.0000   1.0000   1.0000   1.0000   1.0000
     1.0000   1.0000   1.0000   1.0000   1.0000   1.0000   1.0000   1.0000
     1.0000   1.0000   1.0000   1.0000   1.0000   1.0000   1.0000   1.0000
     1.0000   1.0000   1.0000   1.0000   1.0000   1.0000   1.0000   1.0000
     1.0000   1.0000   1.0000   1.0000   1.0000   1.0000   1.0000   1.0000
     1.0000   1.0000   1.0000   1.0000   1.0000   1.0000

          k = 0.0000 0.0000 0.0276 (  6727 PWs)   bands (ev):

   -64.6243 -64.6241 -38.0359 -38.0359 -38.0321 -38.0321 -38.0293 -38.0293
   -38.0258 -38.0258 -38.0025 -38.0025 -37.9988 -37.9988 -37.9959 -37.9959
   -37.9925 -37.9925 -37.9884 -37.9849 -37.9815 -37.9782 -28.8324 -28.8322
   -28.7322 -28.7321 -28.7319 -28.7319  -5.2079  -5.1811  -3.9801  -3.9314
     3.2615   3.4958   6.9812   7.1314   7.1314   7.1328   7.1328   7.7684
     8.2275   8.2276   8.2321   8.2322   9.0047   9.4445

     occupation numbers 
     1.0000   1.0000   1.0000   1.0000   1.0000   1.0000   1.0000   1.0000
     1.0000   1.0000   1.0000   1.0000   1.0000   1.0000   1.0000   1.0000
     1.0000   1.0000   1.0000   1.0000   1.0000   1.0000   1.0000   1.0000
     1.0000   1.0000   1.0000   1.0000   1.0000   1.0000   1.0000   1.0000
     1.0000   1.0000   1.0000   1.0000   1.0000   1.0000   1.0000   1.0000
     1.0000   1.0000   1.0000   1.0000   1.0000   1.0000

          k = 0.0000 0.0000 0.0414 (  6751 PWs)   bands (ev):

   -64.6244 -64.6241 -38.0359 -38.0359 -38.0321 -38.0321 -38.0293 -38.0293
   -38.0258 -38.0258 -38.0025 -38.0025 -37.9988 -37.9988 -37.9959 -37.9959
   -37.9925 -37.9925 -37.9884 -37.9849 -37.9815 -37.9782 -28.8324 -28.8322
   -28.7322 -28.7322 -28.7320 -28.7320  -5.2066  -5.1825  -3.9776  -3.9338
     3.2722   3.4829   7.0143   7.1314   7.1315   7.1327   7.1327   7.7166
     8.2277   8.2279   8.2318   8.2319   9.0402   9.4299

     occupation numbers 
     1.0000   1.0000   1.0000   1.0000   1.0000   1.0000   1.0000   1.0000
     1.0000   1.0000   1.0000   1.0000   1.0000   1.0000   1.0000   1.0000
     1.0000   1.0000   1.0000   1.0000   1.0000   1.0000   1.0000   1.0000
     1.0000   1.0000   1.0000   1.0000   1.0000   1.0000   1.0000   1.0000
     1.0000   1.0000   1.0000   1.0000   1.0000   1.0000   1.0000   1.0000
     1.0000   1.0000   1.0000   1.0000   1.0000   1.0000

          k = 0.0000 0.0000 0.0552 (  6763 PWs)   bands (ev):

   -64.6244 -64.6241 -38.0359 -38.0359 -38.0321 -38.0321 -38.0293 -38.0293
   -38.0258 -38.0258 -38.0025 -38.0025 -37.9988 -37.9988 -37.9959 -37.9959
   -37.9925 -37.9925 -37.9884 -37.9849 -37.9815 -37.9782 -28.8324 -28.8322
   -28.7322 -28.7322 -28.7320 -28.7320  -5.2049  -5.1843  -3.9743  -3.9370
     3.2868   3.4658   7.0595   7.1315   7.1316   7.1326   7.1326   7.6510
     8.2280   8.2282   8.2315   8.2316   9.0838   9.4096

     occupation numbers 
     1.0000   1.0000   1.0000   1.0000   1.0000   1.0000   1.0000   1.0000
     1.0000   1.0000   1.0000   1.0000   1.0000   1.0000   1.0000   1.0000
     1.0000   1.0000   1.0000   1.0000   1.0000   1.0000   1.0000   1.0000
     1.0000   1.0000   1.0000   1.0000   1.0000   1.0000   1.0000   1.0000
     1.0000   1.0000   1.0000   1.0000   1.0000   1.0000   1.0000   1.0000
     1.0000   1.0000   1.0000   1.0000   1.0000   1.0000

          k = 0.0000 0.0000 0.0690 (  6769 PWs)   bands (ev):

   -64.6244 -64.6241 -38.0359 -38.0359 -38.0321 -38.0321 -38.0293 -38.0293
   -38.0258 -38.0258 -38.0025 -38.0025 -37.9988 -37.9988 -37.9959 -37.9959
   -37.9925 -37.9925 -37.9884 -37.9849 -37.9815 -37.9782 -28.8324 -28.8322
   -28.7322 -28.7322 -28.7320 -28.7320  -5.2027  -5.1866  -3.9703  -3.9410
     3.3048   3.4453   7.1154   7.1316   7.1317   7.1325   7.1325   7.5760
     8.2284   8.2285   8.2311   8.2313   9.1316   9.3835

     occupation numbers 
     1.0000   1.0000   1.0000   1.0000   1.0000   1.0000   1.0000   1.0000
     1.0000   1.0000   1.0000   1.0000   1.0000   1.0000   1.0000   1.0000
     1.0000   1.0000   1.0000   1.0000   1.0000   1.0000   1.0000   1.0000
     1.0000   1.0000   1.0000   1.0000   1.0000   1.0000   1.0000   1.0000
     1.0000   1.0000   1.0000   1.0000   1.0000   1.0000   1.0000   1.0000
     1.0000   1.0000   1.0000   1.0000   1.0000   1.0000

          k = 0.0000 0.0000 0.0828 (  6775 PWs)   bands (ev):

   -64.6244 -64.6241 -38.0359 -38.0359 -38.0321 -38.0321 -38.0293 -38.0293
   -38.0258 -38.0258 -38.0025 -38.0025 -37.9988 -37.9988 -37.9959 -37.9959
   -37.9925 -37.9925 -37.9884 -37.9849 -37.9815 -37.9782 -28.8324 -28.8322
   -28.7322 -28.7322 -28.7320 -28.7320  -5.2002  -5.1891  -3.9657  -3.9455
     3.3256   3.4223   7.1318   7.1318   7.1324   7.1324   7.1805   7.4955
     8.2288   8.2290   8.2307   8.2308   9.1807   9.3521

     occupation numbers 
     1.0000   1.0000   1.0000   1.0000   1.0000   1.0000   1.0000   1.0000
     1.0000   1.0000   1.0000   1.0000   1.0000   1.0000   1.0000   1.0000
     1.0000   1.0000   1.0000   1.0000   1.0000   1.0000   1.0000   1.0000
     1.0000   1.0000   1.0000   1.0000   1.0000   1.0000   1.0000   1.0000
     1.0000   1.0000   1.0000   1.0000   1.0000   1.0000   1.0000   1.0000
     1.0000   1.0000   1.0000   1.0000   1.0000   1.0000

          k = 0.0000 0.0000 0.0966 (  6788 PWs)   bands (ev):

   -64.6244 -64.6241 -38.0359 -38.0359 -38.0321 -38.0321 -38.0293 -38.0293
   -38.0258 -38.0258 -38.0025 -38.0025 -37.9988 -37.9988 -37.9959 -37.9959
   -37.9925 -37.9925 -37.9884 -37.9849 -37.9815 -37.9782 -28.8325 -28.8323
   -28.7322 -28.7322 -28.7320 -28.7320  -5.1976  -5.1919  -3.9607  -3.9504
     3.3486   3.3979   7.1319   7.1319   7.1322   7.1322   7.2532   7.4130
     8.2293   8.2294   8.2303   8.2304   9.2287   9.3154

     occupation numbers 
     1.0000   1.0000   1.0000   1.0000   1.0000   1.0000   1.0000   1.0000
     1.0000   1.0000   1.0000   1.0000   1.0000   1.0000   1.0000   1.0000
     1.0000   1.0000   1.0000   1.0000   1.0000   1.0000   1.0000   1.0000
     1.0000   1.0000   1.0000   1.0000   1.0000   1.0000   1.0000   1.0000
     1.0000   1.0000   1.0000   1.0000   1.0000   1.0000   1.0000   1.0000
     1.0000   1.0000   1.0000   1.0000   1.0000   1.0000

          k = 0.0000 0.0000-0.1104 (  6788 PWs)   bands (ev):

   -64.6244 -64.6241 -38.0359 -38.0359 -38.0321 -38.0321 -38.0293 -38.0293
   -38.0258 -38.0258 -38.0025 -38.0025 -37.9988 -37.9988 -37.9959 -37.9959
   -37.9925 -37.9924 -37.9884 -37.9849 -37.9815 -37.9782 -28.8325 -28.8323
   -28.7322 -28.7322 -28.7320 -28.7320  -5.1948  -5.1946  -3.9556  -3.9555
     3.3727   3.3733   7.1320   7.1321   7.1321   7.1321   7.3307   7.3321
     8.2298   8.2298   8.2299   8.2299   9.2734   9.2747

     occupation numbers 
     1.0000   1.0000   1.0000   1.0000   1.0000   1.0000   1.0000   1.0000
     1.0000   1.0000   1.0000   1.0000   1.0000   1.0000   1.0000   1.0000
     1.0000   1.0000   1.0000   1.0000   1.0000   1.0000   1.0000   1.0000
     1.0000   1.0000   1.0000   1.0000   1.0000   1.0000   1.0000   1.0000
     1.0000   1.0000   1.0000   1.0000   1.0000   1.0000   1.0000   1.0000
     1.0000   1.0000   1.0000   1.0000   1.0000   1.0000

          k = 0.0000 0.0722 0.0000 (  6739 PWs)   bands (ev):

   -64.6240 -64.6238 -38.0359 -38.0357 -38.0321 -38.0319 -38.0293 -38.0292
   -38.0258 -38.0257 -38.0026 -38.0025 -37.9989 -37.9989 -37.9959 -37.9959
   -37.9925 -37.9925 -37.9884 -37.9848 -37.9814 -37.9782 -28.8308 -28.8306
   -28.7401 -28.7399 -28.7340 -28.7338  -5.1526  -5.1236  -3.9536  -3.9017
     3.3259   3.5797   6.8629   6.9522   6.9545   7.1856   7.1875   7.5464
     8.1283   8.1337   8.2261   8.3770   8.9727   9.4110

     occupation numbers 
     1.0000   1.0000   1.0000   1.0000   1.0000   1.0000   1.0000   1.0000
     1.0000   1.0000   1.0000   1.0000   1.0000   1.0000   1.0000   1.0000
     1.0000   1.0000   1.0000   1.0000   1.0000   1.0000   1.0000   1.0000
     1.0000   1.0000   1.0000   1.0000   1.0000   1.0000   1.0000   1.0000
     1.0000   1.0000   1.0000   1.0000   1.0000   1.0000   1.0000   1.0000
     1.0000   1.0000   1.0000   1.0000   1.0000   1.0000

          k = 0.0000 0.0722 0.0138 (  6747 PWs)   bands (ev):

   -64.6240 -64.6238 -38.0359 -38.0357 -38.0321 -38.0319 -38.0293 -38.0292
   -38.0258 -38.0257 -38.0026 -38.0025 -37.9989 -37.9989 -37.9959 -37.9959
   -37.9925 -37.9925 -37.9884 -37.9848 -37.9814 -37.9782 -28.8308 -28.8306
   -28.7401 -28.7399 -28.7340 -28.7338  -5.1523  -5.1239  -3.9531  -3.9022
     3.3281   3.5770   6.8691   6.9522   6.9544   7.1856   7.1875   7.5394
     8.1283   8.1336   8.2265   8.3722   8.9808   9.4084

     occupation numbers 
     1.0000   1.0000   1.0000   1.0000   1.0000   1.0000   1.0000   1.0000
     1.0000   1.0000   1.0000   1.0000   1.0000   1.0000   1.0000   1.0000
     1.0000   1.0000   1.0000   1.0000   1.0000   1.0000   1.0000   1.0000
     1.0000   1.0000   1.0000   1.0000   1.0000   1.0000   1.0000   1.0000
     1.0000   1.0000   1.0000   1.0000   1.0000   1.0000   1.0000   1.0000
     1.0000   1.0000   1.0000   1.0000   1.0000   1.0000

          k = 0.0000 0.0722 0.0276 (  6760 PWs)   bands (ev):

   -64.6240 -64.6238 -38.0359 -38.0357 -38.0321 -38.0319 -38.0293 -38.0292
   -38.0258 -38.0257 -38.0026 -38.0025 -37.9989 -37.9989 -37.9959 -37.9959
   -37.9925 -37.9925 -37.9884 -37.9848 -37.9814 -37.9782 -28.8308 -28.8306
   -28.7401 -28.7399 -28.7340 -28.7338  -5.1516  -5.1248  -3.9516  -3.9036
     3.3346   3.5689   6.8874   6.9523   6.9544   7.1856   7.1875   7.5189
     8.1285   8.1335   8.2277   8.3594   9.0036   9.4008

     occupation numbers 
     1.0000   1.0000   1.0000   1.0000   1.0000   1.0000   1.0000   1.0000
     1.0000   1.0000   1.0000   1.0000   1.0000   1.0000   1.0000   1.0000
     1.0000   1.0000   1.0000   1.0000   1.0000   1.0000   1.0000   1.0000
     1.0000   1.0000   1.0000   1.0000   1.0000   1.0000   1.0000   1.0000
     1.0000   1.0000   1.0000   1.0000   1.0000   1.0000   1.0000   1.0000
     1.0000   1.0000   1.0000   1.0000   1.0000   1.0000

          k = 0.0000 0.0722 0.0414 (  6748 PWs)   bands (ev):

   -64.6240 -64.6238 -38.0359 -38.0357 -38.0321 -38.0319 -38.0293 -38.0292
   -38.0258 -38.0257 -38.0026 -38.0025 -37.9989 -37.9989 -37.9959 -37.9959
   -37.9925 -37.9925 -37.9884 -37.9848 -37.9814 -37.9782 -28.8308 -28.8306
   -28.7401 -28.7399 -28.7340 -28.7338  -5.1503  -5.1261  -3.9492  -3.9060
     3.3453   3.5560   6.9173   6.9525   6.9543   7.1857   7.1874   7.4855
     8.1287   8.1332   8.2299   8.3416   9.0374   9.3881

     occupation numbers 
     1.0000   1.0000   1.0000   1.0000   1.0000   1.0000   1.0000   1.0000
     1.0000   1.0000   1.0000   1.0000   1.0000   1.0000   1.0000   1.0000
     1.0000   1.0000   1.0000   1.0000   1.0000   1.0000   1.0000   1.0000
     1.0000   1.0000   1.0000   1.0000   1.0000   1.0000   1.0000   1.0000
     1.0000   1.0000   1.0000   1.0000   1.0000   1.0000   1.0000   1.0000
     1.0000   1.0000   1.0000   1.0000   1.0000   1.0000

          k = 0.0000 0.0722 0.0552 (  6752 PWs)   bands (ev):

   -64.6240 -64.6238 -38.0359 -38.0357 -38.0321 -38.0319 -38.0293 -38.0292
   -38.0258 -38.0257 -38.0026 -38.0025 -37.9989 -37.9989 -37.9959 -37.9959
   -37.9925 -37.9925 -37.9884 -37.9848 -37.9814 -37.9782 -28.8308 -28.8306
   -28.7401 -28.7399 -28.7340 -28.7338  -5.1485  -5.1280  -3.9459  -3.9092
     3.3599   3.5389   6.9517   6.9541   6.9588   7.1858   7.1873   7.4408
     8.1291   8.1329   8.2331   8.3220   9.0783   9.3704

     occupation numbers 
     1.0000   1.0000   1.0000   1.0000   1.0000   1.0000   1.0000   1.0000
     1.0000   1.0000   1.0000   1.0000   1.0000   1.0000   1.0000   1.0000
     1.0000   1.0000   1.0000   1.0000   1.0000   1.0000   1.0000   1.0000
     1.0000   1.0000   1.0000   1.0000   1.0000   1.0000   1.0000   1.0000
     1.0000   1.0000   1.0000   1.0000   1.0000   1.0000   1.0000   1.0000
     1.0000   1.0000   1.0000   1.0000   1.0000   1.0000

          k = 0.0000 0.0722 0.0690 (  6754 PWs)   bands (ev):

   -64.6240 -64.6238 -38.0359 -38.0357 -38.0321 -38.0319 -38.0293 -38.0292
   -38.0258 -38.0257 -38.0026 -38.0025 -37.9989 -37.9989 -37.9959 -37.9959
   -37.9925 -37.9925 -37.9884 -37.9848 -37.9814 -37.9782 -28.8308 -28.8306
   -28.7401 -28.7399 -28.7340 -28.7338  -5.1464  -5.1302  -3.9419  -3.9131
     3.3778   3.5183   6.9526   6.9539   7.0077   7.1860   7.1871   7.3868
     8.1295   8.1325   8.2374   8.3031   9.1225   9.3477

     occupation numbers 
     1.0000   1.0000   1.0000   1.0000   1.0000   1.0000   1.0000   1.0000
     1.0000   1.0000   1.0000   1.0000   1.0000   1.0000   1.0000   1.0000
     1.0000   1.0000   1.0000   1.0000   1.0000   1.0000   1.0000   1.0000
     1.0000   1.0000   1.0000   1.0000   1.0000   1.0000   1.0000   1.0000
     1.0000   1.0000   1.0000   1.0000   1.0000   1.0000   1.0000   1.0000
     1.0000   1.0000   1.0000   1.0000   1.0000   1.0000

          k = 0.0000 0.0722 0.0828 (  6758 PWs)   bands (ev):

   -64.6240 -64.6238 -38.0359 -38.0357 -38.0321 -38.0319 -38.0293 -38.0292
   -38.0258 -38.0257 -38.0026 -38.0025 -37.9989 -37.9989 -37.9959 -37.9959
   -37.9925 -37.9925 -37.9884 -37.9848 -37.9814 -37.9782 -28.8308 -28.8306
   -28.7401 -28.7399 -28.7340 -28.7338  -5.1439  -5.1328  -3.9374  -3.9175
     3.3986   3.4953   6.9528   6.9537   7.0648   7.1862   7.1869   7.3258
     8.1300   8.1320   8.2432   8.2862   9.1672   9.3200

     occupation numbers 
     1.0000   1.0000   1.0000   1.0000   1.0000   1.0000   1.0000   1.0000
     1.0000   1.0000   1.0000   1.0000   1.0000   1.0000   1.0000   1.0000
     1.0000   1.0000   1.0000   1.0000   1.0000   1.0000   1.0000   1.0000
     1.0000   1.0000   1.0000   1.0000   1.0000   1.0000   1.0000   1.0000
     1.0000   1.0000   1.0000   1.0000   1.0000   1.0000   1.0000   1.0000
     1.0000   1.0000   1.0000   1.0000   1.0000   1.0000

          k = 0.0000 0.0722 0.0966 (  6764 PWs)   bands (ev):

   -64.6240 -64.6238 -38.0359 -38.0357 -38.0321 -38.0319 -38.0293 -38.0292
   -38.0258 -38.0257 -38.0026 -38.0025 -37.9989 -37.9989 -37.9959 -37.9959
   -37.9925 -37.9925 -37.9884 -37.9848 -37.9814 -37.9782 -28.8308 -28.8306
   -28.7401 -28.7399 -28.7340 -28.7338  -5.1412  -5.1355  -3.9325  -3.9224
     3.4216   3.4709   6.9531   6.9535   7.1275   7.1864   7.1867   7.2605
     8.1305   8.1315   8.2507   8.2719   9.2105   9.2876

     occupation numbers 
     1.0000   1.0000   1.0000   1.0000   1.0000   1.0000   1.0000   1.0000
     1.0000   1.0000   1.0000   1.0000   1.0000   1.0000   1.0000   1.0000
     1.0000   1.0000   1.0000   1.0000   1.0000   1.0000   1.0000   1.0000
     1.0000   1.0000   1.0000   1.0000   1.0000   1.0000   1.0000   1.0000
     1.0000   1.0000   1.0000   1.0000   1.0000   1.0000   1.0000   1.0000
     1.0000   1.0000   1.0000   1.0000   1.0000   1.0000

          k = 0.0000 0.0722-0.1104 (  6760 PWs)   bands (ev):

[...]
     6.2206   6.2452   7.2456   7.2646   9.3180   9.3381

     occupation numbers 
     1.0000   1.0000   1.0000   1.0000   1.0000   1.0000   1.0000   1.0000
     1.0000   1.0000   1.0000   1.0000   1.0000   1.0000   1.0000   1.0000
     1.0000   1.0000   1.0000   1.0000   1.0000   1.0000   1.0000   1.0000
     1.0000   1.0000   1.0000   1.0000   1.0000   1.0000   1.0000   1.0000
     1.0000   1.0000   1.0000   1.0000   1.0000   1.0000   1.0000   1.0000
     1.0000   1.0000   1.0000   1.0000   1.0000   1.0000

          k = 0.2500 0.5774 0.0966 (  6677 PWs)   bands (ev):

   -64.6150 -64.6147 -38.0345 -38.0330 -38.0307 -38.0293 -38.0278 -38.0265
   -38.0244 -38.0230 -38.0039 -38.0033 -38.0003 -37.9997 -37.9971 -37.9967
   -37.9938 -37.9933 -37.9865 -37.9830 -37.9794 -37.9762 -28.9009 -28.9007
   -28.8418 -28.8416 -28.7860 -28.7858  -3.0819  -3.0808  -2.9217  -2.9206
     4.0198   4.0245   4.2739   4.2783   5.4432   5.4517   5.9340   5.9377
     6.2283   6.2408   7.2497   7.2593   9.3229   9.3331

     occupation numbers 
     1.0000   1.0000   1.0000   1.0000   1.0000   1.0000   1.0000   1.0000
     1.0000   1.0000   1.0000   1.0000   1.0000   1.0000   1.0000   1.0000
     1.0000   1.0000   1.0000   1.0000   1.0000   1.0000   1.0000   1.0000
     1.0000   1.0000   1.0000   1.0000   1.0000   1.0000   1.0000   1.0000
     1.0000   1.0000   1.0000   1.0000   1.0000   1.0000   1.0000   1.0000
     1.0000   1.0000   1.0000   1.0000   1.0000   1.0000

          k = 0.2500 0.5774-0.1104 (  6680 PWs)   bands (ev):

   -64.6150 -64.6147 -38.0345 -38.0330 -38.0307 -38.0293 -38.0278 -38.0265
   -38.0244 -38.0230 -38.0039 -38.0033 -38.0003 -37.9997 -37.9971 -37.9967
   -37.9938 -37.9933 -37.9865 -37.9830 -37.9794 -37.9762 -28.9009 -28.9007
   -28.8418 -28.8416 -28.7860 -28.7858  -3.0815  -3.0812  -2.9212  -2.9210
     4.0220   4.0223   4.2760   4.2761   5.4471   5.4476   5.9353   5.9356
     6.2351   6.2352   7.2543   7.2543   9.3280   9.3281

     occupation numbers 
     1.0000   1.0000   1.0000   1.0000   1.0000   1.0000   1.0000   1.0000
     1.0000   1.0000   1.0000   1.0000   1.0000   1.0000   1.0000   1.0000
     1.0000   1.0000   1.0000   1.0000   1.0000   1.0000   1.0000   1.0000
     1.0000   1.0000   1.0000   1.0000   1.0000   1.0000   1.0000   1.0000
     1.0000   1.0000   1.0000   1.0000   1.0000   1.0000   1.0000   1.0000
     1.0000   1.0000   1.0000   1.0000   1.0000   1.0000

          k = 0.3125 0.5413 0.0000 (  6690 PWs)   bands (ev):

   -64.6149 -64.6146 -38.0341 -38.0333 -38.0304 -38.0295 -38.0275 -38.0268
   -38.0240 -38.0232 -38.0039 -38.0034 -38.0003 -37.9997 -37.9971 -37.9967
   -37.9937 -37.9933 -37.9865 -37.9830 -37.9794 -37.9762 -28.8903 -28.8901
   -28.8562 -28.8560 -28.7854 -28.7852  -3.0493  -3.0457  -2.9039  -2.9001
     4.2194   4.2277   4.2307   4.2461   5.2785   5.3045   5.7557   5.7918
     6.2041   6.2515   7.1959   7.2228   9.4066   9.4539

     occupation numbers 
     1.0000   1.0000   1.0000   1.0000   1.0000   1.0000   1.0000   1.0000
     1.0000   1.0000   1.0000   1.0000   1.0000   1.0000   1.0000   1.0000
     1.0000   1.0000   1.0000   1.0000   1.0000   1.0000   1.0000   1.0000
     1.0000   1.0000   1.0000   1.0000   1.0000   1.0000   1.0000   1.0000
     1.0000   1.0000   1.0000   1.0000   1.0000   1.0000   1.0000   1.0000
     1.0000   1.0000   1.0000   1.0000   1.0000   1.0000

          k = 0.3125 0.5413 0.0138 (  6679 PWs)   bands (ev):

   -64.6149 -64.6146 -38.0341 -38.0333 -38.0304 -38.0295 -38.0275 -38.0268
   -38.0240 -38.0232 -38.0039 -38.0034 -38.0003 -37.9997 -37.9971 -37.9967
   -37.9937 -37.9933 -37.9865 -37.9830 -37.9794 -37.9762 -28.8903 -28.8901
   -28.8562 -28.8560 -28.7854 -28.7852  -3.0493  -3.0458  -2.9038  -2.9002
     4.2196   4.2277   4.2308   4.2459   5.2788   5.3042   5.7557   5.7910
     6.2052   6.2516   7.1959   7.2223   9.4070   9.4534

     occupation numbers 
     1.0000   1.0000   1.0000   1.0000   1.0000   1.0000   1.0000   1.0000
     1.0000   1.0000   1.0000   1.0000   1.0000   1.0000   1.0000   1.0000
     1.0000   1.0000   1.0000   1.0000   1.0000   1.0000   1.0000   1.0000
     1.0000   1.0000   1.0000   1.0000   1.0000   1.0000   1.0000   1.0000
     1.0000   1.0000   1.0000   1.0000   1.0000   1.0000   1.0000   1.0000
     1.0000   1.0000   1.0000   1.0000   1.0000   1.0000

          k = 0.3125 0.5413 0.0276 (  6680 PWs)   bands (ev):

   -64.6149 -64.6146 -38.0341 -38.0333 -38.0304 -38.0295 -38.0275 -38.0268
   -38.0240 -38.0232 -38.0039 -38.0034 -38.0003 -37.9997 -37.9971 -37.9967
   -37.9937 -37.9933 -37.9865 -37.9830 -37.9794 -37.9762 -28.8903 -28.8901
   -28.8562 -28.8560 -28.7854 -28.7852  -3.0492  -3.0459  -2.9037  -2.9003
     4.2202   4.2278   4.2309   4.2452   5.2795   5.3035   5.7557   5.7888
     6.2083   6.2519   7.1959   7.2208   9.4083   9.4520

     occupation numbers 
     1.0000   1.0000   1.0000   1.0000   1.0000   1.0000   1.0000   1.0000
     1.0000   1.0000   1.0000   1.0000   1.0000   1.0000   1.0000   1.0000
     1.0000   1.0000   1.0000   1.0000   1.0000   1.0000   1.0000   1.0000
     1.0000   1.0000   1.0000   1.0000   1.0000   1.0000   1.0000   1.0000
     1.0000   1.0000   1.0000   1.0000   1.0000   1.0000   1.0000   1.0000
     1.0000   1.0000   1.0000   1.0000   1.0000   1.0000

          k = 0.3125 0.5413 0.0414 (  6678 PWs)   bands (ev):

   -64.6149 -64.6146 -38.0341 -38.0333 -38.0304 -38.0295 -38.0275 -38.0268
   -38.0240 -38.0232 -38.0039 -38.0034 -38.0003 -37.9997 -37.9971 -37.9967
   -37.9937 -37.9933 -37.9865 -37.9830 -37.9794 -37.9762 -28.8903 -28.8901
   -28.8562 -28.8560 -28.7854 -28.7852  -3.0490  -3.0460  -2.9035  -2.9005
     4.2210   4.2278   4.2311   4.2442   5.2808   5.3023   5.7558   5.7854
     6.2130   6.2522   7.1960   7.2185   9.4104   9.4497

     occupation numbers 
     1.0000   1.0000   1.0000   1.0000   1.0000   1.0000   1.0000   1.0000
     1.0000   1.0000   1.0000   1.0000   1.0000   1.0000   1.0000   1.0000
     1.0000   1.0000   1.0000   1.0000   1.0000   1.0000   1.0000   1.0000
     1.0000   1.0000   1.0000   1.0000   1.0000   1.0000   1.0000   1.0000
     1.0000   1.0000   1.0000   1.0000   1.0000   1.0000   1.0000   1.0000
     1.0000   1.0000   1.0000   1.0000   1.0000   1.0000

          k = 0.3125 0.5413 0.0552 (  6678 PWs)   bands (ev):

   -64.6149 -64.6146 -38.0341 -38.0333 -38.0304 -38.0295 -38.0275 -38.0268
   -38.0240 -38.0232 -38.0039 -38.0034 -38.0003 -37.9997 -37.9971 -37.9967
   -37.9937 -37.9933 -37.9865 -37.9830 -37.9794 -37.9762 -28.8903 -28.8901
   -28.8562 -28.8560 -28.7854 -28.7852  -3.0488  -3.0463  -2.9033  -2.9007
     4.2221   4.2278   4.2315   4.2428   5.2824   5.3007   5.7562   5.7811
     6.2190   6.2521   7.1964   7.2156   9.4132   9.4467

     occupation numbers 
     1.0000   1.0000   1.0000   1.0000   1.0000   1.0000   1.0000   1.0000
     1.0000   1.0000   1.0000   1.0000   1.0000   1.0000   1.0000   1.0000
     1.0000   1.0000   1.0000   1.0000   1.0000   1.0000   1.0000   1.0000
     1.0000   1.0000   1.0000   1.0000   1.0000   1.0000   1.0000   1.0000
     1.0000   1.0000   1.0000   1.0000   1.0000   1.0000   1.0000   1.0000
     1.0000   1.0000   1.0000   1.0000   1.0000   1.0000

          k = 0.3125 0.5413 0.0690 (  6678 PWs)   bands (ev):

   -64.6149 -64.6146 -38.0341 -38.0333 -38.0304 -38.0295 -38.0275 -38.0268
   -38.0240 -38.0232 -38.0039 -38.0034 -38.0003 -37.9997 -37.9971 -37.9967
   -37.9937 -37.9933 -37.9865 -37.9830 -37.9794 -37.9762 -28.8903 -28.8901
   -28.8562 -28.8560 -28.7854 -28.7852  -3.0485  -3.0465  -2.9030  -2.9010
     4.2234   4.2278   4.2320   4.2411   5.2844   5.2988   5.7570   5.7765
     6.2255   6.2514   7.1971   7.2122   9.4167   9.4430

     occupation numbers 
     1.0000   1.0000   1.0000   1.0000   1.0000   1.0000   1.0000   1.0000
     1.0000   1.0000   1.0000   1.0000   1.0000   1.0000   1.0000   1.0000
     1.0000   1.0000   1.0000   1.0000   1.0000   1.0000   1.0000   1.0000
     1.0000   1.0000   1.0000   1.0000   1.0000   1.0000   1.0000   1.0000
     1.0000   1.0000   1.0000   1.0000   1.0000   1.0000   1.0000   1.0000
     1.0000   1.0000   1.0000   1.0000   1.0000   1.0000

          k = 0.3125 0.5413 0.0828 (  6684 PWs)   bands (ev):

   -64.6149 -64.6146 -38.0341 -38.0333 -38.0304 -38.0295 -38.0275 -38.0268
   -38.0240 -38.0232 -38.0039 -38.0034 -38.0003 -37.9997 -37.9971 -37.9967
   -37.9937 -37.9933 -37.9865 -37.9830 -37.9794 -37.9762 -28.8903 -28.8901
   -28.8562 -28.8560 -28.7854 -28.7852  -3.0482  -3.0469  -2.9027  -2.9013
     4.2245   4.2277   4.2328   4.2393   5.2867   5.2966   5.7585   5.7718
     6.2321   6.2498   7.1984   7.2088   9.4207   9.4388

     occupation numbers 
     1.0000   1.0000   1.0000   1.0000   1.0000   1.0000   1.0000   1.0000
     1.0000   1.0000   1.0000   1.0000   1.0000   1.0000   1.0000   1.0000
     1.0000   1.0000   1.0000   1.0000   1.0000   1.0000   1.0000   1.0000
     1.0000   1.0000   1.0000   1.0000   1.0000   1.0000   1.0000   1.0000
     1.0000   1.0000   1.0000   1.0000   1.0000   1.0000   1.0000   1.0000
     1.0000   1.0000   1.0000   1.0000   1.0000   1.0000

          k = 0.3125 0.5413 0.0966 (  6692 PWs)   bands (ev):

   -64.6149 -64.6146 -38.0341 -38.0333 -38.0304 -38.0295 -38.0275 -38.0268
   -38.0240 -38.0232 -38.0039 -38.0034 -38.0003 -37.9997 -37.9971 -37.9967
   -37.9937 -37.9933 -37.9865 -37.9830 -37.9794 -37.9762 -28.8903 -28.8901
   -28.8562 -28.8560 -28.7854 -28.7852  -3.0479  -3.0472  -2.9024  -2.9016
     4.2254   4.2276   4.2339   4.2375   5.2891   5.2941   5.7607   5.7675
     6.2381   6.2471   7.2002   7.2055   9.4251   9.4343

     occupation numbers 
     1.0000   1.0000   1.0000   1.0000   1.0000   1.0000   1.0000   1.0000
     1.0000   1.0000   1.0000   1.0000   1.0000   1.0000   1.0000   1.0000
     1.0000   1.0000   1.0000   1.0000   1.0000   1.0000   1.0000   1.0000
     1.0000   1.0000   1.0000   1.0000   1.0000   1.0000   1.0000   1.0000
     1.0000   1.0000   1.0000   1.0000   1.0000   1.0000   1.0000   1.0000
     1.0000   1.0000   1.0000   1.0000   1.0000   1.0000

          k = 0.3125 0.5413-0.1104 (  6682 PWs)   bands (ev):

   -64.6149 -64.6146 -38.0341 -38.0333 -38.0304 -38.0295 -38.0275 -38.0268
   -38.0240 -38.0232 -38.0039 -38.0034 -38.0003 -37.9997 -37.9971 -37.9967
   -37.9937 -37.9933 -37.9865 -37.9830 -37.9794 -37.9762 -28.8903 -28.8901
   -28.8562 -28.8560 -28.7854 -28.7852  -3.0476  -3.0475  -2.9020  -2.9019
     4.2258   4.2275   4.2348   4.2363   5.2916   5.2917   5.7635   5.7639
     6.2430   6.2433   7.2026   7.2026   9.4296   9.4297

     occupation numbers 
     1.0000   1.0000   1.0000   1.0000   1.0000   1.0000   1.0000   1.0000
     1.0000   1.0000   1.0000   1.0000   1.0000   1.0000   1.0000   1.0000
     1.0000   1.0000   1.0000   1.0000   1.0000   1.0000   1.0000   1.0000
     1.0000   1.0000   1.0000   1.0000   1.0000   1.0000   1.0000   1.0000
     1.0000   1.0000   1.0000   1.0000   1.0000   1.0000   1.0000   1.0000
     1.0000   1.0000   1.0000   1.0000   1.0000   1.0000

     highest occupied level (ev):     9.4561

* XDM dispersion
  a1 =     0.327500
  a2 (ang) =     2.767300
  a2 (bohr) =     5.229439

+ Volumes and moments
# All results in atomic units (Hartree,bohr)
# i        V             Vfree           M1             M2             M3
  1   1.898335E+02   1.889096E+02   8.752642E+00   1.919923E+02   5.751010E+03
  2   1.898327E+02   1.889096E+02   8.753139E+00   1.920055E+02   5.751310E+03
  3   1.019004E+02   1.047414E+02   9.670090E+00   1.491680E+02   2.842527E+03
  4   1.019031E+02   1.047414E+02   9.670320E+00   1.491774E+02   2.842750E+03
  5   1.018979E+02   1.047414E+02   9.670046E+00   1.491658E+02   2.842504E+03
  6   1.018963E+02   1.047414E+02   9.670115E+00   1.491676E+02   2.842528E+03

+ Dispersion coefficients
# All results in atomic units (Hartree,bohr).
# i   j      C6             C8             C10            Rc            Rvdw
  1   1   3.278150E+02   2.157221E+04   1.524048E+06   8.258251E+00   7.934016E+00
  2   1   3.278243E+02   2.157295E+04   1.524097E+06   8.258259E+00   7.934019E+00
  2   2   3.278336E+02   2.157369E+04   1.524146E+06   8.258267E+00   7.934021E+00
  3   1   1.667629E+02   9.345656E+03   5.541809E+05   7.593062E+00   7.716167E+00
  3   2   1.667702E+02   9.346131E+03   5.542070E+05   7.593068E+00   7.716169E+00
  3   3   1.196729E+02   5.538120E+03   2.603128E+05   6.829314E+00   7.466040E+00
  4   1   1.667672E+02   9.346050E+03   5.542100E+05   7.593111E+00   7.716183E+00
  4   2   1.667745E+02   9.346524E+03   5.542360E+05   7.593118E+00   7.716185E+00
  4   3   1.196760E+02   5.538368E+03   2.603279E+05   6.829370E+00   7.466058E+00
  4   4   1.196790E+02   5.538616E+03   2.603430E+05   6.829426E+00   7.466076E+00
  5   1   1.667596E+02   9.345432E+03   5.541672E+05   7.593052E+00   7.716164E+00
  5   2   1.667669E+02   9.345907E+03   5.541933E+05   7.593059E+00   7.716166E+00
  5   3   1.196712E+02   5.538012E+03   2.603076E+05   6.829305E+00   7.466036E+00
  5   4   1.196742E+02   5.538260E+03   2.603227E+05   6.829361E+00   7.466055E+00
  5   5   1.196695E+02   5.537904E+03   2.603024E+05   6.829295E+00   7.466033E+00
  6   1   1.667579E+02   9.345356E+03   5.541629E+05   7.593057E+00   7.716165E+00
  6   2   1.667651E+02   9.345830E+03   5.541889E+05   7.593063E+00   7.716167E+00
  6   3   1.196707E+02   5.538003E+03   2.603072E+05   6.829309E+00   7.466038E+00
  6   4   1.196737E+02   5.538251E+03   2.603223E+05   6.829365E+00   7.466056E+00
  6   5   1.196690E+02   5.537895E+03   2.603020E+05   6.829300E+00   7.466035E+00
  6   6   1.196685E+02   5.537886E+03   2.603016E+05   6.829304E+00   7.466036E+00

+ van der Waals energies, forces and stresses (Ry,bohr)
  Evdw(total,Ry)   =  -2.143618509312E-01
  Evdw(C6,Ry)      =  -8.678847821230E-02
  Evdw(C8,Ry)      =  -6.657101630054E-02
  Evdw(C10,Ry)     =  -6.100235641840E-02
  Fvdw (001,Ry/bohr) =  -5.206691436361E-09   3.006084781582E-09   6.507121378759E-08
  Fvdw (002,Ry/bohr) =   5.206947257717E-09  -3.006232481847E-09   7.244483287248E-08
  Fvdw (003,Ry/bohr) =   2.595417899599E-09  -1.498465254977E-09  -2.791679897093E-03
  Fvdw (004,Ry/bohr) =  -2.595599559231E-09   1.498570136316E-09  -2.791984345263E-03
  Fvdw (005,Ry/bohr) =   2.595383406374E-09  -1.498445343317E-09   2.791699208227E-03
  Fvdw (006,Ry/bohr) =  -2.595457569258E-09   1.498488166822E-09   2.791827518082E-03
  sigma_vdw (Ry/bohr**3) =  -2.181745934752E-04   4.540162190215E-11  -8.711091319282E-17  
                             4.540162190215E-11  -2.181745410499E-04   5.027926151230E-17  
                            -8.711091319282E-17   5.027926151230E-17  -1.478251887927E-04  
  sigma_vdw (GPa) =  -3.209459069608E+00   6.678809153154E-07  -1.281445772192E-12  
                      6.678809153154E-07  -3.209458298405E+00   7.396334710815E-13  
                     -1.281445772192E-12   7.396334710815E-13  -2.174583599905E+00  


!    total energy              =   -3128.20887410 Ry

     total all-electron energy =    -84012.933438 Ry
     estimated scf accuracy    <          8.2E-09 Ry

     The total energy is the sum of the following terms:
     one-electron contribution =   -1170.17508497 Ry
     hartree contribution      =     606.90076005 Ry
     xc contribution           =    -194.05837161 Ry
     ewald contribution        =    -595.85402450 Ry
     Dispersion XDM Correction =      -0.21436185 Ry
     one-center paw contrib.   =   -1774.80779122 Ry
      -> PAW hartree energy AE =     182.88428064 Ry
      -> PAW hartree energy PS =    -181.90029586 Ry
      -> PAW xc energy AE      =   -1289.23951495 Ry
      -> PAW xc energy PS      =      77.15829217 Ry
      -> total E_H with PAW    =     607.88474483 Ry
      -> total E_XC with PAW   =   -1406.13959439 Ry

     convergence has been achieved in   4 iterations

     Writing output data file ./tmp/WSe2.save/

     init_run     :      4.46s CPU      8.40s WALL (       1 calls)
     electrons    :   1259.74s CPU   1287.63s WALL (       1 calls)

     Called by init_run:
     wfcinit      :      1.91s CPU      5.52s WALL (       1 calls)
     potinit      :      0.51s CPU      0.58s WALL (       1 calls)
     hinit0       :      1.45s CPU      1.51s WALL (       1 calls)
     init_xdm     :      0.00s CPU      0.00s WALL (       1 calls)

     Called by electrons:
     c_bands      :    922.44s CPU    935.90s WALL (       5 calls)
     sum_band     :    326.67s CPU    340.46s WALL (       5 calls)
     v_of_rho     :      0.58s CPU      0.66s WALL (       5 calls)
     v_h          :      0.04s CPU      0.04s WALL (       5 calls)
     v_xc         :      0.53s CPU      0.61s WALL (       5 calls)
     newd         :      2.33s CPU      2.99s WALL (       5 calls)
     PAW_pot      :      2.18s CPU      2.20s WALL (       5 calls)
     mix_rho      :      0.14s CPU      0.16s WALL (       5 calls)
     energy_xdm   :      6.26s CPU      6.28s WALL (       1 calls)
     exdm:environ :      0.00s CPU      0.01s WALL (       2 calls)
     exdm:paw_cha :      0.12s CPU      0.12s WALL (       1 calls)
     exdm:rho     :      1.89s CPU      1.89s WALL (       1 calls)

     Called by c_bands:
     init_us_2    :      4.75s CPU      4.79s WALL (    2700 calls)
     cegterg      :    900.47s CPU    913.85s WALL (    1350 calls)

     Called by sum_band:
     sum_band:wei :      0.00s CPU      0.00s WALL (       5 calls)
     sum_band:loo :    323.15s CPU    336.14s WALL (       5 calls)
     sum_band:buf :      0.89s CPU      0.90s WALL (    1350 calls)
     sum_band:ini :      2.30s CPU      2.30s WALL (    1350 calls)
     sum_band:cal :     42.86s CPU     43.20s WALL (    1350 calls)
     sum_band:bec :      0.22s CPU      0.22s WALL (    1350 calls)
     addusdens    :      3.36s CPU      4.13s WALL (       5 calls)
     addusd:skk   :      0.01s CPU      0.01s WALL (      10 calls)
     addusd:dgemm :      1.55s CPU      2.27s WALL (      10 calls)
     addusd:qvan2 :      1.68s CPU      1.68s WALL (      10 calls)

     Called by *egterg:
     cdiaghg      :     21.66s CPU     21.86s WALL (    4468 calls)
     cegterg:over :    123.63s CPU    124.08s WALL (    3658 calls)
     cegterg:upda :     52.51s CPU     52.75s WALL (    3658 calls)
     cegterg:last :    134.92s CPU    135.53s WALL (    3073 calls)
     cdiaghg:chol :      1.49s CPU      1.51s WALL (    4468 calls)
     cdiaghg:inve :      0.20s CPU      0.20s WALL (    4468 calls)
     cdiaghg:para :      6.11s CPU      6.16s WALL (    8936 calls)
     h_psi        :    420.39s CPU    431.95s WALL (    5008 calls)
     s_psi        :    103.47s CPU    103.66s WALL (    5008 calls)
     g_psi        :      3.32s CPU      3.33s WALL (    3658 calls)

     Called by h_psi:
     h_psi:calbec :    122.30s CPU    123.93s WALL (    5008 calls)
     vloc_psi     :    189.73s CPU    199.46s WALL (    5008 calls)
     add_vuspsi   :    106.30s CPU    106.53s WALL (    5008 calls)

     General routines
     calbec       :    165.11s CPU    167.11s WALL (    6358 calls)
     fft          :      0.75s CPU      0.81s WALL (      85 calls)
     ffts         :      0.02s CPU      0.02s WALL (      15 calls)
     fftw         :    332.43s CPU    348.54s WALL (  585630 calls)
     interpolate  :      0.06s CPU      0.06s WALL (       5 calls)

     Parallel routines
     fft_scatt_xy :     57.68s CPU     60.46s WALL (  585730 calls)
     fft_scatt_yz :    122.40s CPU    128.88s WALL (  585730 calls)

     PAW routines
     PAW_pot      :      2.18s CPU      2.20s WALL (       5 calls)
     PAW_symme    :      0.00s CPU      0.00s WALL (       9 calls)

     PWSCF        :  21m 5.33s CPU  21m39.23s WALL


   This run was terminated on:   2: 4:51   7Sep2024            

=------------------------------------------------------------------------------=
   JOB DONE.
=------------------------------------------------------------------------------=
