
     Program BANDS v.6.7MaX starts on  7Sep2024 at 18:19: 4 

     This program is part of the open-source Quantum ESPRESSO suite
     for quantum simulation of materials; please cite
         "P. Giannozzi et al., J. Phys.:Condens. Matter 21 395502 (2009);
         "P. Giannozzi et al., J. Phys.:Condens. Matter 29 465901 (2017);
          URL http://www.quantum-espresso.org", 
     in publications or presentations arising from this work. More details at
     http://www.quantum-espresso.org/quote

     Parallel version (MPI), running on     4 processors

     MPI processes distributed on     1 nodes
     R & G space division:  proc/nbgrp/npool/nimage =       4

     Reading xml data from directory:

     /home/alessandro_rotondi/q-e/projects/WSe2/tmp/WSe2.save/
     file W.pbe-spn-kjpaw_psl.1.0.0.UPF: wavefunction(s)  6S 5P 5D renormalized
     file Se.pbe-dn-kjpaw_psl.1.0.0.UPF: wavefunction(s)  4S 4P 3D renormalized

     IMPORTANT: XC functional enforced from input :
     Exchange-correlation= PBE
                           (   1   4   3   4   0   0   0)
     Any further DFT definition will be discarded
     Please, verify this is what you really want


     Parallelization info
     --------------------
     sticks:   dense  smooth     PW     G-vecs:    dense   smooth      PW
     Min         321     148     42                42597    13420    2115
     Max         322     149     43                42620    13435    2122
     Sum        1285     595    169               170417    53709    8473


     negative rho (up, down):  1.121E-03 0.000E+00
     Reading collected, re-writing distributed wavefunctions
     high-symmetry point:  0.0000 0.0000 0.0000   x coordinate   0.0000
     high-symmetry point:  0.0000 0.0000 0.0966   x coordinate   0.0966
     high-symmetry point:  0.0000 0.0000-0.1104   x coordinate   0.0966
     high-symmetry point:  0.0000 0.0722 0.0000   x coordinate   0.0966
     high-symmetry point:  0.0000 0.0722 0.0966   x coordinate   0.1932
     high-symmetry point:  0.0000 0.0722-0.1104   x coordinate   0.1932
     high-symmetry point:  0.0000 0.1443 0.0000   x coordinate   0.1932
     high-symmetry point:  0.0000 0.1443 0.0966   x coordinate   0.2898
     high-symmetry point:  0.0000 0.1443-0.1104   x coordinate   0.2898
     high-symmetry point:  0.0000 0.2165 0.0000   x coordinate   0.2898
     high-symmetry point:  0.0000 0.2165 0.0966   x coordinate   0.3864
     high-symmetry point:  0.0000 0.2165-0.1104   x coordinate   0.3864
     high-symmetry point:  0.0000 0.2887 0.0000   x coordinate   0.3864
     high-symmetry point:  0.0000 0.2887 0.0966   x coordinate   0.4830
     high-symmetry point:  0.0000 0.2887-0.1104   x coordinate   0.4830
     high-symmetry point:  0.0000 0.3608 0.0000   x coordinate   0.4830
     high-symmetry point:  0.0000 0.3608 0.0966   x coordinate   0.5796
     high-symmetry point:  0.0000 0.3608-0.1104   x coordinate   0.5796
     high-symmetry point:  0.0000 0.4330 0.0000   x coordinate   0.5796
     high-symmetry point:  0.0000 0.4330 0.0966   x coordinate   0.6762
     high-symmetry point:  0.0000 0.4330-0.1104   x coordinate   0.6762
     high-symmetry point:  0.0000 0.5052 0.0000   x coordinate   0.6762
     high-symmetry point:  0.0000 0.5052 0.0966   x coordinate   0.7728
     high-symmetry point:  0.0000 0.5052-0.1104   x coordinate   0.7728
     high-symmetry point:  0.0000-0.5774 0.0000   x coordinate   0.7728
     high-symmetry point:  0.0000-0.5774 0.0966   x coordinate   0.8694
     high-symmetry point:  0.0000-0.5774-0.1104   x coordinate   0.8694
     high-symmetry point:  0.0625 0.1083 0.0000   x coordinate   0.8694
     high-symmetry point:  0.0625 0.1083 0.0966   x coordinate   0.9660
     high-symmetry point:  0.0625 0.1083-0.1104   x coordinate   0.9660
     high-symmetry point:  0.0625 0.1804 0.0000   x coordinate   0.9660
     high-symmetry point:  0.0625 0.1804 0.0966   x coordinate   1.0625
     high-symmetry point:  0.0625 0.1804-0.1104   x coordinate   1.0625
     high-symmetry point:  0.0625 0.2526 0.0000   x coordinate   1.0625
     high-symmetry point:  0.0625 0.2526 0.0966   x coordinate   1.1591
     high-symmetry point:  0.0625 0.2526-0.1104   x coordinate   1.1591
     high-symmetry point:  0.0625 0.3248 0.0000   x coordinate   1.1591
     high-symmetry point:  0.0625 0.3248 0.0966   x coordinate   1.2557
     high-symmetry point:  0.0625 0.3248-0.1104   x coordinate   1.2557
     high-symmetry point:  0.0625 0.3969 0.0000   x coordinate   1.2557
     high-symmetry point:  0.0625 0.3969 0.0966   x coordinate   1.3523
     high-symmetry point:  0.0625 0.3969-0.1104   x coordinate   1.3523
     high-symmetry point:  0.0625 0.4691 0.0000   x coordinate   1.3523
     high-symmetry point:  0.0625 0.4691 0.0966   x coordinate   1.4489
     high-symmetry point:  0.0625 0.4691-0.1104   x coordinate   1.4489
     high-symmetry point:  0.0625 0.5413 0.0000   x coordinate   1.4489
     high-symmetry point:  0.0625 0.5413 0.0966   x coordinate   1.5455
     high-symmetry point:  0.0625 0.5413-0.1104   x coordinate   1.5455
     high-symmetry point:  0.1250 0.2165 0.0000   x coordinate   1.5455
     high-symmetry point:  0.1250 0.2165 0.0966   x coordinate   1.6421
     high-symmetry point:  0.1250 0.2165-0.1104   x coordinate   1.6421
     high-symmetry point:  0.1250 0.2887 0.0000   x coordinate   1.6421
     high-symmetry point:  0.1250 0.2887 0.0966   x coordinate   1.7387
     high-symmetry point:  0.1250 0.2887-0.1104   x coordinate   1.7387
     high-symmetry point:  0.1250 0.3608 0.0000   x coordinate   1.7387
     high-symmetry point:  0.1250 0.3608 0.0966   x coordinate   1.8353
     high-symmetry point:  0.1250 0.3608-0.1104   x coordinate   1.8353
     high-symmetry point:  0.1250 0.4330 0.0000   x coordinate   1.8353
     high-symmetry point:  0.1250 0.4330 0.0966   x coordinate   1.9319
     high-symmetry point:  0.1250 0.4330-0.1104   x coordinate   1.9319
     high-symmetry point:  0.1250 0.5052 0.0000   x coordinate   1.9319
     high-symmetry point:  0.1250 0.5052 0.0966   x coordinate   2.0285
     high-symmetry point:  0.1250 0.5052-0.1104   x coordinate   2.0285
     high-symmetry point:  0.1250 0.5774 0.0000   x coordinate   2.0285
     high-symmetry point:  0.1250 0.5774 0.0966   x coordinate   2.1251
     high-symmetry point:  0.1250 0.5774-0.1104   x coordinate   2.1251
     high-symmetry point:  0.1875 0.3248 0.0000   x coordinate   2.1251
     high-symmetry point:  0.1875 0.3248 0.0966   x coordinate   2.2217
     high-symmetry point:  0.1875 0.3248-0.1104   x coordinate   2.2217
     high-symmetry point:  0.1875 0.3969 0.0000   x coordinate   2.2217
     high-symmetry point:  0.1875 0.3969 0.0966   x coordinate   2.3183
     high-symmetry point:  0.1875 0.3969-0.1104   x coordinate   2.3183
     high-symmetry point:  0.1875 0.4691 0.0000   x coordinate   2.3183
     high-symmetry point:  0.1875 0.4691 0.0966   x coordinate   2.4149
     high-symmetry point:  0.1875 0.4691-0.1104   x coordinate   2.4149
     high-symmetry point:  0.1875 0.5413 0.0000   x coordinate   2.4149
     high-symmetry point:  0.1875 0.5413 0.0966   x coordinate   2.5115
     high-symmetry point:  0.1875 0.5413-0.1104   x coordinate   2.5115
     high-symmetry point:  0.2500 0.4330 0.0000   x coordinate   2.5115
     high-symmetry point:  0.2500 0.4330 0.0966   x coordinate   2.6081
     high-symmetry point:  0.2500 0.4330-0.1104   x coordinate   2.6081
     high-symmetry point:  0.2500 0.5052 0.0000   x coordinate   2.6081
     high-symmetry point:  0.2500 0.5052 0.0966   x coordinate   2.7047
     high-symmetry point:  0.2500 0.5052-0.1104   x coordinate   2.7047
     high-symmetry point:  0.2500 0.5774 0.0000   x coordinate   2.7047
     high-symmetry point:  0.2500 0.5774 0.0966   x coordinate   2.8013
     high-symmetry point:  0.2500 0.5774-0.1104   x coordinate   2.8013
     high-symmetry point:  0.3125 0.5413 0.0000   x coordinate   2.8013
     high-symmetry point:  0.3125 0.5413 0.0966   x coordinate   2.8979
     high-symmetry point:  0.3125 0.5413-0.1104   x coordinate   2.8979

     Plottable bands (eV) written to file WSe2.dat.gnu
     Bands written to file WSe2.dat

 **************************************************************************

                    xk=(   0.00000,   0.00000,   0.00000  )

     point group D_6h(6/mmm)
     there are 12 classes
     the character table:

       E     2C6   2C3   C2    3C2'  3C2'' i     2S3   2S6   s_h   3s_d  3s_v 
A_1g   1.00  1.00  1.00  1.00  1.00  1.00  1.00  1.00  1.00  1.00  1.00  1.00
A_2g   1.00  1.00  1.00  1.00 -1.00 -1.00  1.00  1.00  1.00  1.00 -1.00 -1.00
B_1g   1.00 -1.00  1.00 -1.00  1.00 -1.00  1.00 -1.00  1.00 -1.00  1.00 -1.00
B_2g   1.00 -1.00  1.00 -1.00 -1.00  1.00  1.00 -1.00  1.00 -1.00 -1.00  1.00
E_1g   2.00  1.00 -1.00 -2.00  0.00  0.00  2.00  1.00 -1.00 -2.00  0.00  0.00
E_2g   2.00 -1.00 -1.00  2.00  0.00  0.00  2.00 -1.00 -1.00  2.00  0.00  0.00
A_1u   1.00  1.00  1.00  1.00  1.00  1.00 -1.00 -1.00 -1.00 -1.00 -1.00 -1.00
A_2u   1.00  1.00  1.00  1.00 -1.00 -1.00 -1.00 -1.00 -1.00 -1.00  1.00  1.00
B_1u   1.00 -1.00  1.00 -1.00  1.00 -1.00 -1.00  1.00 -1.00  1.00 -1.00  1.00
B_2u   1.00 -1.00  1.00 -1.00 -1.00  1.00 -1.00  1.00 -1.00  1.00  1.00 -1.00
E_1u   2.00  1.00 -1.00 -2.00  0.00  0.00 -2.00 -1.00  1.00  2.00  0.00  0.00
E_2u   2.00 -1.00 -1.00  2.00  0.00  0.00 -2.00  1.00  1.00 -2.00  0.00  0.00

     the symmetry operations in each class and the name of the first element:

     E        1
                                                                 
     2C6      5    6
                                                                 
     2C3      7    8
                                                                 
     C2       2
                                                                 
     3C2'     4   12   11
                                                                 
     3C2''    3    9   10
                                                                 
     i       13
                                                                 
     2S3     17   18
                                                                 
     2S6     19   20
                                                                 
     s_h     14
                                                                 
     3s_d    16   24   23
                                                                 
     3s_v    15   21   22
                                                                 

     Band symmetry, D_6h(6/mmm) point group:

     e(  1 -  1) =    -64.60929  eV     1   -->   ?
     e(  2 -  2) =    -64.60905  eV     1   -->   ?
     e(  3 -  4) =    -38.04615  eV     2   -->   ?
     e(  5 -  6) =    -38.04227  eV     2   -->   ?
     e(  7 -  8) =    -38.03958  eV     2   -->   ?
     e(  9 - 10) =    -38.03597  eV     2   -->   ?
     e( 11 - 12) =    -38.01067  eV     2   -->   ?
     e( 13 - 14) =    -38.00692  eV     2   -->   ?
     e( 15 - 16) =    -38.00397  eV     2   -->   ?
     e( 17 - 18) =    -38.00049  eV     2   -->   ?
     e( 19 - 19) =    -37.99552  eV     1   -->   ?
     e( 20 - 20) =    -37.99202  eV     1   -->   ?
     e( 21 - 21) =    -37.98837  eV     1   -->   ?
     e( 22 - 22) =    -37.98515  eV     1   -->   ?
     e( 23 - 23) =    -28.82488  eV     1   -->   ?
     e( 24 - 24) =    -28.82468  eV     1   -->   ?
     e( 25 - 26) =    -28.73126  eV     2   -->   ?
     e( 27 - 28) =    -28.73103  eV     2   -->   ?
     e( 29 - 29) =     -5.29115  eV     1   --> A_1g           
     e( 30 - 30) =     -5.26554  eV     1   --> B_2u           
     e( 31 - 31) =     -3.98774  eV     1   --> B_1g           
     e( 32 - 32) =     -3.93961  eV     1   --> A_2u           
     e( 33 - 33) =      3.21987  eV     1   --> A_1g           
     e( 34 - 34) =      3.45746  eV     1   --> B_2u           
     e( 35 - 36) =      7.00669  eV     2   -->   ?
     e( 37 - 38) =      7.00803  eV     2   -->   ?
     e( 39 - 39) =      7.02102  eV     1   --> B_1g           
     e( 40 - 40) =      7.85008  eV     1   --> A_2u           
     e( 41 - 41) =      8.13525  eV     1   -->   ?
     e( 42 - 42) =      8.13538  eV     1   -->   ?
     e( 43 - 43) =      8.13962  eV     1   -->   ?
     e( 44 - 44) =      8.13975  eV     1   -->   ?
     e( 45 - 45) =      9.03540  eV     1   --> A_1g           
     e( 46 - 46) =      9.51042  eV     1   --> B_2u           

 **************************************************************************

 **************************************************************************

                    xk=(   0.00000,   0.00000,   0.01380  )

     point group C_6v (6mm) 
     there are  6 classes
     the character table:

       E     2C6   2C3   C2    3s_v  3s_d 
A_1    1.00  1.00  1.00  1.00  1.00  1.00
A_2    1.00  1.00  1.00  1.00 -1.00 -1.00
B_1    1.00 -1.00  1.00 -1.00  1.00 -1.00
B_2    1.00 -1.00  1.00 -1.00 -1.00  1.00
E_1    2.00  1.00 -1.00 -2.00  0.00  0.00
E_2    2.00 -1.00 -1.00  2.00  0.00  0.00

     the symmetry operations in each class and the name of the first element:

     E        1
                                                                 
     2C6      3    4
                                                                 
     2C3      5    6
                                                                 
     C2       2
                                                                 
     3s_v     8   12   11
                                                                 
     3s_d     7    9   10
                                                                 

     Band symmetry, C_6v (6mm)  point group:

     e(  1 -  1) =    -64.60930  eV     1   -->   ?
     e(  2 -  2) =    -64.60905  eV     1   -->   ?
     e(  3 -  4) =    -38.04615  eV     2   -->   ?
     e(  5 -  6) =    -38.04227  eV     2   -->   ?
     e(  7 -  8) =    -38.03958  eV     2   -->   ?
     e(  9 - 10) =    -38.03597  eV     2   -->   ?
     e( 11 - 12) =    -38.01067  eV     2   -->   ?
     e( 13 - 14) =    -38.00692  eV     2   -->   ?
     e( 15 - 16) =    -38.00397  eV     2   -->   ?
     e( 17 - 18) =    -38.00049  eV     2   -->   ?
     e( 19 - 19) =    -37.99552  eV     1   -->   ?
     e( 20 - 20) =    -37.99202  eV     1   -->   ?
     e( 21 - 21) =    -37.98837  eV     1   -->   ?
     e( 22 - 22) =    -37.98515  eV     1   -->   ?
     e( 23 - 23) =    -28.82489  eV     1   -->   ?
     e( 24 - 24) =    -28.82470  eV     1   -->   ?
     e( 25 - 26) =    -28.73126  eV     2   -->   ?
     e( 27 - 28) =    -28.73102  eV     2   -->   ?
     e( 29 - 29) =     -5.29091  eV     1   --> A_1            
     e( 30 - 30) =     -5.26580  eV     1   --> B_1            
     e( 31 - 31) =     -3.98727  eV     1   --> B_1            
     e( 32 - 32) =     -3.94007  eV     1   --> A_1            
     e( 33 - 33) =      3.22195  eV     1   --> A_1            
     e( 34 - 34) =      3.45494  eV     1   --> B_1            
     e( 35 - 36) =      7.00671  eV     2   -->   ?
     e( 37 - 38) =      7.00801  eV     2   -->   ?
     e( 39 - 39) =      7.02759  eV     1   --> B_1            
     e( 40 - 40) =      7.83897  eV     1   --> A_1            
     e( 41 - 41) =      8.13530  eV     1   -->   ?
     e( 42 - 42) =      8.13542  eV     1   -->   ?
     e( 43 - 43) =      8.13958  eV     1   -->   ?
     e( 44 - 44) =      8.13970  eV     1   -->   ?
     e( 45 - 45) =      9.04334  eV     1   --> A_1            
     e( 46 - 46) =      9.50750  eV     1   --> B_1            

 **************************************************************************

 **************************************************************************

                    xk=(   0.00000,   0.00000,   0.02760  )

     Band symmetry, C_6v (6mm)  point group:

     e(  1 -  1) =    -64.60929  eV     1   -->   ?
     e(  2 -  2) =    -64.60904  eV     1   -->   ?
     e(  3 -  4) =    -38.04615  eV     2   -->   ?
     e(  5 -  6) =    -38.04227  eV     2   -->   ?
     e(  7 -  8) =    -38.03958  eV     2   -->   ?
     e(  9 - 10) =    -38.03597  eV     2   -->   ?
     e( 11 - 12) =    -38.01067  eV     2   -->   ?
     e( 13 - 14) =    -38.00692  eV     2   -->   ?
     e( 15 - 16) =    -38.00397  eV     2   -->   ?
     e( 17 - 18) =    -38.00049  eV     2   -->   ?
     e( 19 - 19) =    -37.99552  eV     1   -->   ?
     e( 20 - 20) =    -37.99202  eV     1   -->   ?
     e( 21 - 21) =    -37.98837  eV     1   -->   ?
     e( 22 - 22) =    -37.98515  eV     1   -->   ?
     e( 23 - 23) =    -28.82488  eV     1   -->   ?
     e( 24 - 24) =    -28.82467  eV     1   -->   ?
     e( 25 - 26) =    -28.73126  eV     2   -->   ?
     e( 27 - 28) =    -28.73102  eV     2   -->   ?
     e( 29 - 29) =     -5.29020  eV     1   --> A_1            
     e( 30 - 30) =     -5.26655  eV     1   --> B_1            
     e( 31 - 31) =     -3.98588  eV     1   --> B_1            
     e( 32 - 32) =     -3.94142  eV     1   --> A_1            
     e( 33 - 33) =      3.22814  eV     1   --> A_1            
     e( 34 - 34) =      3.44751  eV     1   --> B_1            
     e( 35 - 36) =      7.00674  eV     2   -->   ?
     e( 37 - 38) =      7.00797  eV     2   -->   ?
     e( 39 - 39) =      7.04712  eV     1   --> B_1            
     e( 40 - 40) =      7.80692  eV     1   --> A_1            
     e( 41 - 41) =      8.13542  eV     1   -->   ?
     e( 42 - 42) =      8.13554  eV     1   -->   ?
     e( 43 - 43) =      8.13946  eV     1   -->   ?
     e( 44 - 44) =      8.13958  eV     1   -->   ?
     e( 45 - 45) =      9.06597  eV     1   --> A_1            
     e( 46 - 46) =      9.49877  eV     1   --> B_1            

 **************************************************************************

 **************************************************************************

                    xk=(   0.00000,   0.00000,   0.04140  )

     Band symmetry, C_6v (6mm)  point group:

     e(  1 -  1) =    -64.60930  eV     1   -->   ?
     e(  2 -  2) =    -64.60905  eV     1   -->   ?
     e(  3 -  4) =    -38.04615  eV     2   -->   ?
     e(  5 -  6) =    -38.04227  eV     2   -->   ?
     e(  7 -  8) =    -38.03958  eV     2   -->   ?
     e(  9 - 10) =    -38.03597  eV     2   -->   ?
     e( 11 - 12) =    -38.01066  eV     2   -->   ?
     e( 13 - 14) =    -38.00692  eV     2   -->   ?
     e( 15 - 16) =    -38.00397  eV     2   -->   ?
     e( 17 - 18) =    -38.00049  eV     2   -->   ?
     e( 19 - 19) =    -37.99552  eV     1   -->   ?
     e( 20 - 20) =    -37.99202  eV     1   -->   ?
     e( 21 - 21) =    -37.98837  eV     1   -->   ?
     e( 22 - 22) =    -37.98515  eV     1   -->   ?
     e( 23 - 23) =    -28.82491  eV     1   -->   ?
     e( 24 - 24) =    -28.82470  eV     1   -->   ?
     e( 25 - 26) =    -28.73128  eV     2   -->   ?
     e( 27 - 28) =    -28.73105  eV     2   -->   ?
     e( 29 - 29) =     -5.28905  eV     1   --> A_1            
     e( 30 - 30) =     -5.26776  eV     1   --> B_1            
     e( 31 - 31) =     -3.98364  eV     1   --> B_1            
     e( 32 - 32) =     -3.94362  eV     1   --> A_1            
     e( 33 - 33) =      3.23826  eV     1   --> A_1            
     e( 34 - 34) =      3.43555  eV     1   --> B_1            
     e( 35 - 36) =      7.00680  eV     2   -->   ?
     e( 37 - 38) =      7.00791  eV     2   -->   ?
     e( 39 - 39) =      7.07907  eV     1   --> B_1            
     e( 40 - 40) =      7.75717  eV     1   --> A_1            
     e( 41 - 41) =      8.13562  eV     1   -->   ?
     e( 42 - 42) =      8.13574  eV     1   -->   ?
     e( 43 - 43) =      8.13925  eV     1   -->   ?
     e( 44 - 44) =      8.13938  eV     1   -->   ?
     e( 45 - 45) =      9.10034  eV     1   --> A_1            
     e( 46 - 46) =      9.48425  eV     1   --> B_1            

 **************************************************************************

 **************************************************************************

                    xk=(   0.00000,   0.00000,   0.05520  )

     Band symmetry, C_6v (6mm)  point group:

     e(  1 -  1) =    -64.60931  eV     1   -->   ?
     e(  2 -  2) =    -64.60906  eV     1   -->   ?
     e(  3 -  4) =    -38.04615  eV     2   -->   ?
     e(  5 -  6) =    -38.04227  eV     2   -->   ?
     e(  7 -  8) =    -38.03958  eV     2   -->   ?
     e(  9 - 10) =    -38.03597  eV     2   -->   ?
     e( 11 - 12) =    -38.01066  eV     2   -->   ?
     e( 13 - 14) =    -38.00692  eV     2   -->   ?
     e( 15 - 16) =    -38.00397  eV     2   -->   ?
     e( 17 - 18) =    -38.00049  eV     2   -->   ?
     e( 19 - 19) =    -37.99552  eV     1   -->   ?
     e( 20 - 20) =    -37.99202  eV     1   -->   ?
     e( 21 - 21) =    -37.98837  eV     1   -->   ?
     e( 22 - 22) =    -37.98515  eV     1   -->   ?
     e( 23 - 23) =    -28.82491  eV     1   -->   ?
     e( 24 - 24) =    -28.82470  eV     1   -->   ?
     e( 25 - 26) =    -28.73130  eV     2   -->   ?
     e( 27 - 28) =    -28.73108  eV     2   -->   ?
     e( 29 - 29) =     -5.28750  eV     1   --> A_1            
     e( 30 - 30) =     -5.26940  eV     1   --> B_1            
     e( 31 - 31) =     -3.98061  eV     1   --> B_1            
     e( 32 - 32) =     -3.94659  eV     1   --> A_1            
     e( 33 - 33) =      3.25199  eV     1   --> A_1            
     e( 34 - 34) =      3.41964  eV     1   --> B_1            
     e( 35 - 36) =      7.00688  eV     2   -->   ?
     e( 37 - 38) =      7.00783  eV     2   -->   ?
     e( 39 - 39) =      7.12259  eV     1   --> B_1            
     e( 40 - 40) =      7.69398  eV     1   --> A_1            
     e( 41 - 41) =      8.13589  eV     1   -->   ?
     e( 42 - 42) =      8.13601  eV     1   -->   ?
     e( 43 - 43) =      8.13898  eV     1   -->   ?
     e( 44 - 44) =      8.13910  eV     1   -->   ?
     e( 45 - 45) =      9.14269  eV     1   --> A_1            
     e( 46 - 46) =      9.46399  eV     1   --> B_1            

 **************************************************************************

 **************************************************************************

                    xk=(   0.00000,   0.00000,   0.06900  )

     Band symmetry, C_6v (6mm)  point group:

     e(  1 -  1) =    -64.60931  eV     1   -->   ?
     e(  2 -  2) =    -64.60906  eV     1   -->   ?
     e(  3 -  4) =    -38.04615  eV     2   -->   ?
     e(  5 -  6) =    -38.04227  eV     2   -->   ?
     e(  7 -  8) =    -38.03958  eV     2   -->   ?
     e(  9 - 10) =    -38.03597  eV     2   -->   ?
     e( 11 - 12) =    -38.01066  eV     2   -->   ?
     e( 13 - 14) =    -38.00692  eV     2   -->   ?
     e( 15 - 16) =    -38.00397  eV     2   -->   ?
     e( 17 - 18) =    -38.00049  eV     2   -->   ?
     e( 19 - 19) =    -37.99552  eV     1   -->   ?
     e( 20 - 20) =    -37.99202  eV     1   -->   ?
     e( 21 - 21) =    -37.98837  eV     1   -->   ?
     e( 22 - 22) =    -37.98515  eV     1   -->   ?
     e( 23 - 23) =    -28.82491  eV     1   -->   ?
     e( 24 - 24) =    -28.82472  eV     1   -->   ?
     e( 25 - 26) =    -28.73130  eV     2   -->   ?
     e( 27 - 28) =    -28.73108  eV     2   -->   ?
     e( 29 - 29) =     -5.28559  eV     1   --> A_1            
     e( 30 - 30) =     -5.27137  eV     1   --> B_1            
     e( 31 - 31) =     -3.97694  eV     1   --> B_1            
     e( 32 - 32) =     -3.95020  eV     1   --> A_1            
     e( 33 - 33) =      3.26892  eV     1   --> A_1            
     e( 34 - 34) =      3.40054  eV     1   --> B_1            
     e( 35 - 36) =      7.00699  eV     2   -->   ?
     e( 37 - 38) =      7.00773  eV     2   -->   ?
     e( 39 - 39) =      7.17651  eV     1   --> B_1            
     e( 40 - 40) =      7.62161  eV     1   --> A_1            
     e( 41 - 41) =      8.13621  eV     1   -->   ?
     e( 42 - 42) =      8.13633  eV     1   -->   ?
     e( 43 - 43) =      8.13865  eV     1   -->   ?
     e( 44 - 44) =      8.13877  eV     1   -->   ?
     e( 45 - 45) =      9.18943  eV     1   --> A_1            
     e( 46 - 46) =      9.43812  eV     1   --> B_1            

 **************************************************************************

 **************************************************************************

                    xk=(   0.00000,   0.00000,   0.08280  )

     Band symmetry, C_6v (6mm)  point group:

     e(  1 -  1) =    -64.60931  eV     1   -->   ?
     e(  2 -  2) =    -64.60906  eV     1   -->   ?
     e(  3 -  4) =    -38.04615  eV     2   -->   ?
     e(  5 -  6) =    -38.04227  eV     2   -->   ?
     e(  7 -  8) =    -38.03958  eV     2   -->   ?
     e(  9 - 10) =    -38.03597  eV     2   -->   ?
     e( 11 - 12) =    -38.01066  eV     2   -->   ?
     e( 13 - 14) =    -38.00692  eV     2   -->   ?
     e( 15 - 16) =    -38.00397  eV     2   -->   ?
     e( 17 - 18) =    -38.00049  eV     2   -->   ?
     e( 19 - 19) =    -37.99552  eV     1   -->   ?
     e( 20 - 20) =    -37.99202  eV     1   -->   ?
     e( 21 - 21) =    -37.98837  eV     1   -->   ?
     e( 22 - 22) =    -37.98515  eV     1   -->   ?
     e( 23 - 23) =    -28.82493  eV     1   -->   ?
     e( 24 - 24) =    -28.82473  eV     1   -->   ?
     e( 25 - 26) =    -28.73130  eV     2   -->   ?
     e( 27 - 28) =    -28.73109  eV     2   -->   ?
     e( 29 - 29) =     -5.28341  eV     1   --> A_1            
     e( 30 - 30) =     -5.27362  eV     1   --> B_1            
     e( 31 - 31) =     -3.97276  eV     1   --> B_1            
     e( 32 - 32) =     -3.95434  eV     1   --> A_1            
     e( 33 - 33) =      3.28852  eV     1   --> A_1            
     e( 34 - 34) =      3.37911  eV     1   --> B_1            
     e( 35 - 36) =      7.00710  eV     2   -->   ?
     e( 37 - 38) =      7.00761  eV     2   -->   ?
     e( 39 - 39) =      7.23940  eV     1   --> B_1            
     e( 40 - 40) =      7.54390  eV     1   --> A_1            
     e( 41 - 41) =      8.13659  eV     1   -->   ?
     e( 42 - 42) =      8.13671  eV     1   -->   ?
     e( 43 - 43) =      8.13827  eV     1   -->   ?
     e( 44 - 44) =      8.13839  eV     1   -->   ?
     e( 45 - 45) =      9.23758  eV     1   --> A_1            
     e( 46 - 46) =      9.40682  eV     1   --> B_1            

 **************************************************************************

 **************************************************************************

                    xk=(   0.00000,   0.00000,   0.09660  )

     Band symmetry, C_6v (6mm)  point group:

     e(  1 -  1) =    -64.60932  eV     1   -->   ?
     e(  2 -  2) =    -64.60907  eV     1   -->   ?
     e(  3 -  4) =    -38.04615  eV     2   -->   ?
     e(  5 -  6) =    -38.04227  eV     2   -->   ?
     e(  7 -  8) =    -38.03958  eV     2   -->   ?
     e(  9 - 10) =    -38.03597  eV     2   -->   ?
     e( 11 - 12) =    -38.01066  eV     2   -->   ?
     e( 13 - 14) =    -38.00692  eV     2   -->   ?
     e( 15 - 16) =    -38.00397  eV     2   -->   ?
     e( 17 - 18) =    -38.00049  eV     2   -->   ?
     e( 19 - 19) =    -37.99552  eV     1   -->   ?
     e( 20 - 20) =    -37.99202  eV     1   -->   ?
     e( 21 - 21) =    -37.98837  eV     1   -->   ?
     e( 22 - 22) =    -37.98515  eV     1   -->   ?
     e( 23 - 23) =    -28.82495  eV     1   -->   ?
     e( 24 - 24) =    -28.82476  eV     1   -->   ?
     e( 25 - 26) =    -28.73131  eV     2   -->   ?
     e( 27 - 28) =    -28.73110  eV     2   -->   ?
     e( 29 - 29) =     -5.28104  eV     1   -->   ?
     e( 30 - 30) =     -5.27604  eV     1   -->   ?
     e( 31 - 31) =     -3.96823  eV     1   --> B_1            
     e( 32 - 32) =     -3.95884  eV     1   --> A_1            
     e( 33 - 33) =      3.31012  eV     1   --> A_1            
     e( 34 - 34) =      3.35629  eV     1   --> B_1            
     e( 35 - 36) =      7.00722  eV     2   -->   ?
     e( 37 - 38) =      7.00749  eV     2   -->   ?
     e( 39 - 39) =      7.30961  eV     1   --> B_1            
     e( 40 - 40) =      7.46417  eV     1   --> A_1            
     e( 41 - 41) =      8.13700  eV     1   -->   ?
     e( 42 - 42) =      8.13712  eV     1   -->   ?
     e( 43 - 43) =      8.13786  eV     1   -->   ?
     e( 44 - 44) =      8.13798  eV     1   -->   ?
     e( 45 - 45) =      9.28482  eV     1   --> A_1            
     e( 46 - 46) =      9.37045  eV     1   --> B_1            

 **************************************************************************

 **************************************************************************

                    xk=(   0.00000,   0.00000,  -0.11039  )

     zone border point and non-symmorphic group 
     symmetry decomposition not available

 **************************************************************************

 **************************************************************************

                    xk=(   0.00000,   0.07217,   0.00000  )

     point group C_2v (mm2) 
     there are  4 classes
     the character table:

       E     C2    s_v   s_v' 
A_1    1.00  1.00  1.00  1.00
A_2    1.00  1.00 -1.00 -1.00
B_1    1.00 -1.00  1.00 -1.00
B_2    1.00 -1.00 -1.00  1.00

     the symmetry operations in each class and the name of the first element:

     E        1
                                                                 
     C2       2
                                                                 
     s_v      3
                                                                 
     s_v'     4
                                                                 

     Band symmetry, C_2v (mm2)  point group:

     e(  1 -  1) =    -64.60897  eV     1   --> A_1  D_1  S_1  
     e(  2 -  2) =    -64.60872  eV     1   --> A_1  D_1  S_1  
     e(  3 -  3) =    -38.04614  eV     1   -->   ?
     e(  4 -  4) =    -38.04600  eV     1   -->   ?
     e(  5 -  5) =    -38.04226  eV     1   -->   ?
     e(  6 -  6) =    -38.04212  eV     1   -->   ?
     e(  7 -  7) =    -38.03959  eV     1   -->   ?
     e(  8 -  8) =    -38.03944  eV     1   -->   ?
     e(  9 -  9) =    -38.03597  eV     1   -->   ?
     e( 10 - 10) =    -38.03583  eV     1   -->   ?
     e( 11 - 12) =    -38.01071  eV     2   -->   ?
     e( 13 - 14) =    -38.00696  eV     2   -->   ?
     e( 15 - 16) =    -38.00404  eV     2   -->   ?
     e( 17 - 18) =    -38.00055  eV     2   -->   ?
     e( 19 - 19) =    -37.99545  eV     1   -->   ?
     e( 20 - 20) =    -37.99196  eV     1   -->   ?
     e( 21 - 21) =    -37.98830  eV     1   -->   ?
     e( 22 - 22) =    -37.98508  eV     1   -->   ?
     e( 23 - 23) =    -28.82323  eV     1   --> B_2  D_4  S_4  
     e( 24 - 24) =    -28.82304  eV     1   --> B_2  D_4  S_4  
     e( 25 - 25) =    -28.73930  eV     1   --> A_1  D_1  S_1  
     e( 26 - 26) =    -28.73909  eV     1   --> A_1  D_1  S_1  
     e( 27 - 27) =    -28.73310  eV     1   --> B_1  D_3  S_3  
     e( 28 - 28) =    -28.73289  eV     1   --> B_1  D_3  S_3  
     e( 29 - 29) =     -5.23429  eV     1   --> A_1  D_1  S_1  
     e( 30 - 30) =     -5.20874  eV     1   --> A_1  D_1  S_1  
     e( 31 - 31) =     -3.96015  eV     1   --> B_2  D_4  S_4  
     e( 32 - 32) =     -3.91281  eV     1   --> B_2  D_4  S_4  
     e( 33 - 33) =      3.29254  eV     1   --> A_1  D_1  S_1  
     e( 34 - 34) =      3.53013  eV     1   --> A_1  D_1  S_1  
     e( 35 - 35) =      6.82927  eV     1   --> A_1  D_1  S_1  
     e( 36 - 36) =      6.83125  eV     1   --> A_1  D_1  S_1  
     e( 37 - 37) =      6.91118  eV     1   --> B_2  D_4  S_4  
     e( 38 - 38) =      7.06159  eV     1   --> B_1  D_3  S_3  
     e( 39 - 39) =      7.06333  eV     1   --> B_1  D_3  S_3  
     e( 40 - 40) =      7.53118  eV     1   --> B_2  D_4  S_4  
     e( 41 - 41) =      8.03611  eV     1   --> A_2  D_2  S_2  
     e( 42 - 42) =      8.04093  eV     1   --> A_2  D_2  S_2  
     e( 43 - 43) =      8.15508  eV     1   --> B_2  D_4  S_4  
     e( 44 - 44) =      8.34050  eV     1   --> B_2  D_4  S_4  
     e( 45 - 45) =      9.03133  eV     1   --> A_1  D_1  S_1  
     e( 46 - 46) =      9.46098  eV     1   --> A_1  D_1  S_1  

 **************************************************************************

 **************************************************************************

                    xk=(   0.00000,   0.07217,   0.01380  )

     point group C_s (m)    
     there are  2 classes
     the character table:

       E     s    
A'     1.00  1.00
A''    1.00 -1.00

     the symmetry operations in each class and the name of the first element:

     E        1
                                                                 
     s        2
                                                                 

     Band symmetry, C_s (m)     point group:

     e(  1 -  1) =    -64.60897  eV     1   --> A'             
     e(  2 -  2) =    -64.60873  eV     1   --> A'             
     e(  3 -  3) =    -38.04614  eV     1   --> A'             
     e(  4 -  4) =    -38.04600  eV     1   --> A''            
     e(  5 -  5) =    -38.04226  eV     1   --> A'             
     e(  6 -  6) =    -38.04212  eV     1   --> A''            
     e(  7 -  7) =    -38.03959  eV     1   --> A'             
     e(  8 -  8) =    -38.03944  eV     1   --> A''            
     e(  9 -  9) =    -38.03597  eV     1   --> A'             
     e( 10 - 10) =    -38.03583  eV     1   --> A''            
     e( 11 - 12) =    -38.01071  eV     2   --> A'             
     e( 11 - 12) =    -38.01071  eV     2   --> A''            
     e( 13 - 14) =    -38.00696  eV     2   --> A'             
     e( 13 - 14) =    -38.00696  eV     2   --> A''            
     e( 15 - 16) =    -38.00404  eV     2   --> A'             
     e( 15 - 16) =    -38.00404  eV     2   --> A''            
     e( 17 - 18) =    -38.00055  eV     2   --> A'             
     e( 17 - 18) =    -38.00055  eV     2   --> A''            
     e( 19 - 19) =    -37.99545  eV     1   --> A'             
     e( 20 - 20) =    -37.99196  eV     1   --> A'             
     e( 21 - 21) =    -37.98830  eV     1   --> A'             
     e( 22 - 22) =    -37.98508  eV     1   --> A'             
     e( 23 - 23) =    -28.82324  eV     1   --> A'             
     e( 24 - 24) =    -28.82305  eV     1   --> A'             
     e( 25 - 25) =    -28.73931  eV     1   --> A'             
     e( 26 - 26) =    -28.73910  eV     1   --> A'             
     e( 27 - 27) =    -28.73311  eV     1   --> A''            
     e( 28 - 28) =    -28.73290  eV     1   --> A''            
     e( 29 - 29) =     -5.23405  eV     1   --> A'             
     e( 30 - 30) =     -5.20899  eV     1   --> A'             
     e( 31 - 31) =     -3.95968  eV     1   --> A'             
     e( 32 - 32) =     -3.91326  eV     1   --> A'             
     e( 33 - 33) =      3.29462  eV     1   --> A'             
     e( 34 - 34) =      3.52760  eV     1   --> A'             
     e( 35 - 35) =      6.82929  eV     1   --> A'             
     e( 36 - 36) =      6.83123  eV     1   --> A'             
     e( 37 - 37) =      6.91700  eV     1   --> A'             
     e( 38 - 38) =      7.06160  eV     1   --> A''            
     e( 39 - 39) =      7.06331  eV     1   --> A''            
     e( 40 - 40) =      7.52532  eV     1   --> A'             
     e( 41 - 41) =      8.03615  eV     1   --> A''            
     e( 42 - 42) =      8.04088  eV     1   --> A''            
     e( 43 - 43) =      8.15564  eV     1   --> A'             
     e( 44 - 44) =      8.33527  eV     1   --> A'             
     e( 45 - 45) =      9.03901  eV     1   --> A'             
     e( 46 - 46) =      9.45846  eV     1   --> A'             

 **************************************************************************

 **************************************************************************

                    xk=(   0.00000,   0.07217,   0.02760  )

     Band symmetry, C_s (m)     point group:

     e(  1 -  1) =    -64.60898  eV     1   --> A'             
     e(  2 -  2) =    -64.60873  eV     1   --> A'             
     e(  3 -  3) =    -38.04614  eV     1   --> A'             
     e(  4 -  4) =    -38.04600  eV     1   --> A''            
     e(  5 -  5) =    -38.04226  eV     1   --> A'             
     e(  6 -  6) =    -38.04212  eV     1   --> A''            
     e(  7 -  7) =    -38.03959  eV     1   --> A'             
     e(  8 -  8) =    -38.03944  eV     1   --> A''            
     e(  9 -  9) =    -38.03597  eV     1   --> A'             
     e( 10 - 10) =    -38.03583  eV     1   --> A''            
     e( 11 - 12) =    -38.01071  eV     2   --> A'             
     e( 11 - 12) =    -38.01071  eV     2   --> A''            
     e( 13 - 14) =    -38.00696  eV     2   --> A'             
     e( 13 - 14) =    -38.00696  eV     2   --> A''            
     e( 15 - 16) =    -38.00404  eV     2   --> A'             
     e( 15 - 16) =    -38.00404  eV     2   --> A''            
     e( 17 - 18) =    -38.00055  eV     2   --> A'             
     e( 17 - 18) =    -38.00055  eV     2   --> A''            
     e( 19 - 19) =    -37.99545  eV     1   --> A'             
     e( 20 - 20) =    -37.99196  eV     1   --> A'             
     e( 21 - 21) =    -37.98830  eV     1   --> A'             
     e( 22 - 22) =    -37.98508  eV     1   --> A'             
     e( 23 - 23) =    -28.82326  eV     1   --> A'             
     e( 24 - 24) =    -28.82307  eV     1   --> A'             
     e( 25 - 25) =    -28.73932  eV     1   --> A'             
     e( 26 - 26) =    -28.73911  eV     1   --> A'             
     e( 27 - 27) =    -28.73312  eV     1   --> A''            
     e( 28 - 28) =    -28.73291  eV     1   --> A''            
     e( 29 - 29) =     -5.23335  eV     1   --> A'             
     e( 30 - 30) =     -5.20974  eV     1   --> A'             
     e( 31 - 31) =     -3.95832  eV     1   --> A'             
     e( 32 - 32) =     -3.91459  eV     1   --> A'             
     e( 33 - 33) =      3.30080  eV     1   --> A'             
     e( 34 - 34) =      3.52015  eV     1   --> A'             
     e( 35 - 35) =      6.82934  eV     1   --> A'             
     e( 36 - 36) =      6.83117  eV     1   --> A'             
     e( 37 - 37) =      6.93425  eV     1   --> A'             
     e( 38 - 38) =      7.06165  eV     1   --> A''            
     e( 39 - 39) =      7.06326  eV     1   --> A''            
     e( 40 - 40) =      7.50790  eV     1   --> A'             
     e( 41 - 41) =      8.03629  eV     1   --> A''            
     e( 42 - 42) =      8.04074  eV     1   --> A''            
     e( 43 - 43) =      8.15733  eV     1   --> A'             
     e( 44 - 44) =      8.32085  eV     1   --> A'             
     e( 45 - 45) =      9.06075  eV     1   --> A'             
     e( 46 - 46) =      9.45088  eV     1   --> A'             

 **************************************************************************

 **************************************************************************

                    xk=(   0.00000,   0.07217,   0.04140  )

     Band symmetry, C_s (m)     point group:

     e(  1 -  1) =    -64.60897  eV     1   --> A'             
     e(  2 -  2) =    -64.60873  eV     1   --> A'             
     e(  3 -  3) =    -38.04614  eV     1   --> A'             
     e(  4 -  4) =    -38.04600  eV     1   --> A''            
     e(  5 -  5) =    -38.04226  eV     1   --> A'             
     e(  6 -  6) =    -38.04212  eV     1   --> A''            
     e(  7 -  7) =    -38.03959  eV     1   --> A'             
     e(  8 -  8) =    -38.03944  eV     1   --> A''            
     e(  9 -  9) =    -38.03597  eV     1   --> A'             
     e( 10 - 10) =    -38.03583  eV     1   --> A''            
     e( 11 - 12) =    -38.01071  eV     2   --> A'             
     e( 11 - 12) =    -38.01071  eV     2   --> A''            
     e( 13 - 14) =    -38.00696  eV     2   --> A'             
     e( 13 - 14) =    -38.00696  eV     2   --> A''            
     e( 15 - 16) =    -38.00404  eV     2   --> A'             
     e( 15 - 16) =    -38.00404  eV     2   --> A''            
     e( 17 - 18) =    -38.00055  eV     2   --> A'             
     e( 17 - 18) =    -38.00055  eV     2   --> A''            
     e( 19 - 19) =    -37.99545  eV     1   --> A'             
     e( 20 - 20) =    -37.99196  eV     1   --> A'             
     e( 21 - 21) =    -37.98830  eV     1   --> A'             
     e( 22 - 22) =    -37.98508  eV     1   --> A'             
     e( 23 - 23) =    -28.82324  eV     1   --> A'             
     e( 24 - 24) =    -28.82305  eV     1   --> A'             
     e( 25 - 25) =    -28.73931  eV     1   --> A'             
     e( 26 - 26) =    -28.73910  eV     1   --> A'             
     e( 27 - 27) =    -28.73311  eV     1   --> A''            
     e( 28 - 28) =    -28.73290  eV     1   --> A''            
     e( 29 - 29) =     -5.23220  eV     1   --> A'             
     e( 30 - 30) =     -5.21095  eV     1   --> A'             
     e( 31 - 31) =     -3.95611  eV     1   --> A'             
     e( 32 - 32) =     -3.91675  eV     1   --> A'             
     e( 33 - 33) =      3.31089  eV     1   --> A'             
     e( 34 - 34) =      3.50816  eV     1   --> A'             
     e( 35 - 35) =      6.82942  eV     1   --> A'             
     e( 36 - 36) =      6.83108  eV     1   --> A'             
     e( 37 - 37) =      6.96231  eV     1   --> A'             
     e( 38 - 38) =      7.06173  eV     1   --> A''            
     e( 39 - 39) =      7.06318  eV     1   --> A''            
     e( 40 - 40) =      7.47936  eV     1   --> A'             
     e( 41 - 41) =      8.03651  eV     1   --> A''            
     e( 42 - 42) =      8.04052  eV     1   --> A''            
     e( 43 - 43) =      8.16024  eV     1   --> A'             
     e( 44 - 44) =      8.30037  eV     1   --> A'             
     e( 45 - 45) =      9.09331  eV     1   --> A'             
     e( 46 - 46) =      9.43827  eV     1   --> A'             

 **************************************************************************

 **************************************************************************

                    xk=(   0.00000,   0.07217,   0.05520  )

     Band symmetry, C_s (m)     point group:

     e(  1 -  1) =    -64.60898  eV     1   --> A'             
     e(  2 -  2) =    -64.60873  eV     1   --> A'             
     e(  3 -  3) =    -38.04614  eV     1   --> A'             
     e(  4 -  4) =    -38.04600  eV     1   --> A''            
     e(  5 -  5) =    -38.04226  eV     1   --> A'             
     e(  6 -  6) =    -38.04212  eV     1   --> A''            
     e(  7 -  7) =    -38.03959  eV     1   --> A'             
     e(  8 -  8) =    -38.03944  eV     1   --> A''            
     e(  9 -  9) =    -38.03597  eV     1   --> A'             
     e( 10 - 10) =    -38.03583  eV     1   --> A''            
     e( 11 - 12) =    -38.01071  eV     2   --> A'             
     e( 11 - 12) =    -38.01071  eV     2   --> A''            
     e( 13 - 14) =    -38.00696  eV     2   --> A'             
     e( 13 - 14) =    -38.00696  eV     2   --> A''            
     e( 15 - 16) =    -38.00404  eV     2   --> A'             
     e( 15 - 16) =    -38.00404  eV     2   --> A''            
     e( 17 - 18) =    -38.00055  eV     2   --> A'             
     e( 17 - 18) =    -38.00055  eV     2   --> A''            
     e( 19 - 19) =    -37.99545  eV     1   --> A'             
     e( 20 - 20) =    -37.99196  eV     1   --> A'             
     e( 21 - 21) =    -37.98830  eV     1   --> A'             
     e( 22 - 22) =    -37.98508  eV     1   --> A'             
     e( 23 - 23) =    -28.82325  eV     1   --> A'             
     e( 24 - 24) =    -28.82306  eV     1   --> A'             
     e( 25 - 25) =    -28.73930  eV     1   --> A'             
     e( 26 - 26) =    -28.73909  eV     1   --> A'             
     e( 27 - 27) =    -28.73312  eV     1   --> A''            
     e( 28 - 28) =    -28.73291  eV     1   --> A''            
     e( 29 - 29) =     -5.23065  eV     1   --> A'             
     e( 30 - 30) =     -5.21258  eV     1   --> A'             
     e( 31 - 31) =     -3.95313  eV     1   --> A'             
     e( 32 - 32) =     -3.91967  eV     1   --> A'             
     e( 33 - 33) =      3.32460  eV     1   --> A'             
     e( 34 - 34) =      3.49222  eV     1   --> A'             
     e( 35 - 35) =      6.82954  eV     1   --> A'             
     e( 36 - 36) =      6.83095  eV     1   --> A'             
     e( 37 - 37) =      7.00019  eV     1   --> A'             
     e( 38 - 38) =      7.06184  eV     1   --> A''            
     e( 39 - 39) =      7.06307  eV     1   --> A''            
     e( 40 - 40) =      7.44060  eV     1   --> A'             
     e( 41 - 41) =      8.03681  eV     1   --> A''            
     e( 42 - 42) =      8.04022  eV     1   --> A''            
     e( 43 - 43) =      8.16452  eV     1   --> A'             
     e( 44 - 44) =      8.27729  eV     1   --> A'             
     e( 45 - 45) =      9.13285  eV     1   --> A'             
     e( 46 - 46) =      9.42062  eV     1   --> A'             

 **************************************************************************

 **************************************************************************

                    xk=(   0.00000,   0.07217,   0.06900  )

     Band symmetry, C_s (m)     point group:

     e(  1 -  1) =    -64.60898  eV     1   --> A'             
     e(  2 -  2) =    -64.60873  eV     1   --> A'             
     e(  3 -  3) =    -38.04614  eV     1   --> A'             
     e(  4 -  4) =    -38.04600  eV     1   --> A''            
     e(  5 -  5) =    -38.04226  eV     1   --> A'             
     e(  6 -  6) =    -38.04212  eV     1   --> A''            
     e(  7 -  7) =    -38.03959  eV     1   --> A'             
     e(  8 -  8) =    -38.03944  eV     1   --> A''            
     e(  9 -  9) =    -38.03597  eV     1   --> A'             
     e( 10 - 10) =    -38.03583  eV     1   --> A''            
     e( 11 - 12) =    -38.01071  eV     2   --> A'             
     e( 11 - 12) =    -38.01071  eV     2   --> A''            
     e( 13 - 14) =    -38.00696  eV     2   --> A'             
     e( 13 - 14) =    -38.00696  eV     2   --> A''            
     e( 15 - 16) =    -38.00404  eV     2   --> A'             
     e( 15 - 16) =    -38.00404  eV     2   --> A''            
     e( 17 - 18) =    -38.00055  eV     2   --> A'             
     e( 17 - 18) =    -38.00055  eV     2   --> A''            
     e( 19 - 19) =    -37.99545  eV     1   --> A'             
     e( 20 - 20) =    -37.99196  eV     1   --> A'             
     e( 21 - 21) =    -37.98830  eV     1   --> A'             
     e( 22 - 22) =    -37.98508  eV     1   --> A'             
     e( 23 - 23) =    -28.82325  eV     1   --> A'             
     e( 24 - 24) =    -28.82306  eV     1   --> A'             
     e( 25 - 25) =    -28.73930  eV     1   --> A'             
     e( 26 - 26) =    -28.73909  eV     1   --> A'             
     e( 27 - 27) =    -28.73313  eV     1   --> A''            
     e( 28 - 28) =    -28.73292  eV     1   --> A''            
     e( 29 - 29) =     -5.22875  eV     1   --> A'             
     e( 30 - 30) =     -5.21456  eV     1   --> A'             
     e( 31 - 31) =     -3.94952  eV     1   --> A'             
     e( 32 - 32) =     -3.92322  eV     1   --> A'             
     e( 33 - 33) =      3.34151  eV     1   --> A'             
     e( 34 - 34) =      3.47309  eV     1   --> A'             
     e( 35 - 35) =      6.82969  eV     1   --> A'             
     e( 36 - 36) =      6.83080  eV     1   --> A'             
     e( 37 - 37) =      7.04654  eV     1   --> A'             
     e( 38 - 38) =      7.06197  eV     1   --> A''            
     e( 39 - 39) =      7.06294  eV     1   --> A''            
     e( 40 - 40) =      7.39306  eV     1   --> A'             
     e( 41 - 41) =      8.03717  eV     1   --> A''            
     e( 42 - 42) =      8.03985  eV     1   --> A''            
     e( 43 - 43) =      8.17036  eV     1   --> A'             
     e( 44 - 44) =      8.25441  eV     1   --> A'             
     e( 45 - 45) =      9.17590  eV     1   --> A'             
     e( 46 - 46) =      9.39802  eV     1   --> A'             

 **************************************************************************

 **************************************************************************

                    xk=(   0.00000,   0.07217,   0.08280  )

     Band symmetry, C_s (m)     point group:

     e(  1 -  1) =    -64.60898  eV     1   --> A'             
     e(  2 -  2) =    -64.60873  eV     1   --> A'             
     e(  3 -  3) =    -38.04614  eV     1   --> A'             
     e(  4 -  4) =    -38.04600  eV     1   --> A''            
     e(  5 -  5) =    -38.04226  eV     1   --> A'             
     e(  6 -  6) =    -38.04212  eV     1   --> A''            
     e(  7 -  7) =    -38.03959  eV     1   --> A'             
     e(  8 -  8) =    -38.03944  eV     1   --> A''            
     e(  9 -  9) =    -38.03597  eV     1   --> A'             
     e( 10 - 10) =    -38.03583  eV     1   --> A''            
     e( 11 - 12) =    -38.01071  eV     2   --> A'             
     e( 11 - 12) =    -38.01071  eV     2   --> A''            
     e( 13 - 14) =    -38.00696  eV     2   --> A'             
     e( 13 - 14) =    -38.00696  eV     2   --> A''            
     e( 15 - 16) =    -38.00404  eV     2   --> A'             
     e( 15 - 16) =    -38.00404  eV     2   --> A''            
     e( 17 - 18) =    -38.00055  eV     2   --> A'             
     e( 17 - 18) =    -38.00055  eV     2   --> A''            
     e( 19 - 19) =    -37.99545  eV     1   --> A'             
     e( 20 - 20) =    -37.99196  eV     1   --> A'             
     e( 21 - 21) =    -37.98830  eV     1   --> A'             
     e( 22 - 22) =    -37.98508  eV     1   --> A'             
     e( 23 - 23) =    -28.82326  eV     1   --> A'             
     e( 24 - 24) =    -28.82307  eV     1   --> A'             
     e( 25 - 25) =    -28.73930  eV     1   --> A'             
     e( 26 - 26) =    -28.73909  eV     1   --> A'             
     e( 27 - 27) =    -28.73313  eV     1   --> A''            
     e( 28 - 28) =    -28.73292  eV     1   --> A''            
     e( 29 - 29) =     -5.22657  eV     1   --> A'             
     e( 30 - 30) =     -5.21680  eV     1   --> A'             
     e( 31 - 31) =     -3.94540  eV     1   --> A'             
     e( 32 - 32) =     -3.92729  eV     1   --> A'             
     e( 33 - 33) =      3.36108  eV     1   --> A'             
     e( 34 - 34) =      3.45165  eV     1   --> A'             
     e( 35 - 35) =      6.82986  eV     1   --> A'             
     e( 36 - 36) =      6.83063  eV     1   --> A'             
     e( 37 - 37) =      7.06212  eV     1   --> A''            
     e( 38 - 38) =      7.06279  eV     1   --> A''            
     e( 39 - 39) =      7.09970  eV     1   --> A'             
     e( 40 - 40) =      7.33864  eV     1   --> A'             
     e( 41 - 41) =      8.03759  eV     1   --> A''            
     e( 42 - 42) =      8.03943  eV     1   --> A''            
     e( 43 - 43) =      8.17804  eV     1   --> A'             
     e( 44 - 44) =      8.23349  eV     1   --> A'             
     e( 45 - 45) =      9.21971  eV     1   --> A'             
     e( 46 - 46) =      9.37056  eV     1   --> A'             

 **************************************************************************

 **************************************************************************

                    xk=(   0.00000,   0.07217,   0.09660  )

     Band symmetry, C_s (m)     point group:

     e(  1 -  1) =    -64.60898  eV     1   --> A'             
     e(  2 -  2) =    -64.60873  eV     1   --> A'             
     e(  3 -  3) =    -38.04614  eV     1   --> A'             
     e(  4 -  4) =    -38.04600  eV     1   --> A''            
     e(  5 -  5) =    -38.04226  eV     1   --> A'             
     e(  6 -  6) =    -38.04212  eV     1   --> A''            
     e(  7 -  7) =    -38.03959  eV     1   --> A'             
     e(  8 -  8) =    -38.03944  eV     1   --> A''            
     e(  9 -  9) =    -38.03597  eV     1   --> A'             
     e( 10 - 10) =    -38.03583  eV     1   --> A''            
     e( 11 - 12) =    -38.01071  eV     2   --> A'             
     e( 11 - 12) =    -38.01071  eV     2   --> A''            
     e( 13 - 14) =    -38.00696  eV     2   --> A'             
     e( 13 - 14) =    -38.00696  eV     2   --> A''            
     e( 15 - 16) =    -38.00404  eV     2   --> A'             
     e( 15 - 16) =    -38.00404  eV     2   --> A''            
     e( 17 - 18) =    -38.00055  eV     2   --> A'             
     e( 17 - 18) =    -38.00055  eV     2   --> A''            
     e( 19 - 19) =    -37.99545  eV     1   --> A'             
     e( 20 - 20) =    -37.99196  eV     1   --> A'             
     e( 21 - 21) =    -37.98830  eV     1   --> A'             
     e( 22 - 22) =    -37.98508  eV     1   --> A'             
     e( 23 - 23) =    -28.82326  eV     1   --> A'             
     e( 24 - 24) =    -28.82307  eV     1   --> A'             
     e( 25 - 25) =    -28.73931  eV     1   --> A'             
     e( 26 - 26) =    -28.73910  eV     1   --> A'             
     e( 27 - 27) =    -28.73314  eV     1   --> A''            
     e( 28 - 28) =    -28.73294  eV     1   --> A''            
     e( 29 - 29) =     -5.22420  eV     1   --> A'             
     e( 30 - 30) =     -5.21921  eV     1   --> A'             
     e( 31 - 31) =     -3.94095  eV     1   --> A'             
     e( 32 - 32) =     -3.93171  eV     1   --> A'             
     e( 33 - 33) =      3.38266  eV     1   --> A'             
     e( 34 - 34) =      3.42881  eV     1   --> A'             
     e( 35 - 35) =      6.83005  eV     1   --> A'             
     e( 36 - 36) =      6.83044  eV     1   --> A'             
     e( 37 - 37) =      7.06228  eV     1   --> A''            
     e( 38 - 38) =      7.06263  eV     1   --> A''            
     e( 39 - 39) =      7.15775  eV     1   --> A'             
     e( 40 - 40) =      7.27964  eV     1   --> A'             
     e( 41 - 41) =      8.03804  eV     1   --> A''            
     e( 42 - 42) =      8.03898  eV     1   --> A''            
     e( 43 - 43) =      8.18787  eV     1   --> A'             
     e( 44 - 44) =      8.21536  eV     1   --> A'             
     e( 45 - 45) =      9.26227  eV     1   --> A'             
     e( 46 - 46) =      9.33849  eV     1   --> A'             

 **************************************************************************

 **************************************************************************

                    xk=(   0.00000,   0.07217,  -0.11039  )

     zone border point and non-symmorphic group 
     symmetry decomposition not available

 **************************************************************************

 **************************************************************************

                    xk=(   0.00000,   0.14434,   0.00000  )

     Band symmetry, C_2v (mm2)  point group:

     e(  1 -  1) =    -64.60804  eV     1   --> A_1  D_1  S_1  
     e(  2 -  2) =    -64.60780  eV     1   --> A_1  D_1  S_1  
     e(  3 -  3) =    -38.04614  eV     1   -->   ?
     e(  4 -  4) =    -38.04559  eV     1   -->   ?
     e(  5 -  5) =    -38.04224  eV     1   -->   ?
     e(  6 -  6) =    -38.04170  eV     1   -->   ?
     e(  7 -  7) =    -38.03960  eV     1   -->   ?
     e(  8 -  8) =    -38.03903  eV     1   -->   ?
     e(  9 -  9) =    -38.03597  eV     1   -->   ?
     e( 10 - 10) =    -38.03541  eV     1   -->   ?
     e( 11 - 11) =    -38.01086  eV     1   -->   ?
     e( 12 - 12) =    -38.01075  eV     1   -->   ?
     e( 13 - 14) =    -38.00707  eV     2   -->   ?
     e( 15 - 15) =    -38.00424  eV     1   -->   ?
     e( 16 - 16) =    -38.00404  eV     1   -->   ?
     e( 17 - 17) =    -38.00072  eV     1   -->   ?
     e( 18 - 18) =    -38.00057  eV     1   -->   ?
     e( 19 - 19) =    -37.99525  eV     1   -->   ?
     e( 20 - 20) =    -37.99177  eV     1   -->   ?
     e( 21 - 21) =    -37.98809  eV     1   -->   ?
     e( 22 - 22) =    -37.98488  eV     1   -->   ?
     e( 23 - 23) =    -28.81855  eV     1   --> B_2  D_4  S_4  
     e( 24 - 24) =    -28.81836  eV     1   --> B_2  D_4  S_4  
     e( 25 - 25) =    -28.76210  eV     1   --> A_1  D_1  S_1  
     e( 26 - 26) =    -28.76189  eV     1   --> A_1  D_1  S_1  
     e( 27 - 27) =    -28.73840  eV     1   --> B_1  D_3  S_3  
     e( 28 - 28) =    -28.73819  eV     1   --> B_1  D_3  S_3  
     e( 29 - 29) =     -5.06803  eV     1   --> A_1  D_1  S_1  
     e( 30 - 30) =     -5.04269  eV     1   --> A_1  D_1  S_1  
     e( 31 - 31) =     -3.87959  eV     1   --> B_2  D_4  S_4  
     e( 32 - 32) =     -3.83460  eV     1   --> B_2  D_4  S_4  
     e( 33 - 33) =      3.50244  eV     1   --> A_1  D_1  S_1  
     e( 34 - 34) =      3.73933  eV     1   --> A_1  D_1  S_1  
     e( 35 - 35) =      6.36537  eV     1   --> A_1  D_1  S_1  
     e( 36 - 36) =      6.36934  eV     1   --> A_1  D_1  S_1  
     e( 37 - 37) =      6.63335  eV     1   --> B_2  D_4  S_4  
     e( 38 - 38) =      7.04773  eV     1   --> B_2  D_4  S_4  
     e( 39 - 39) =      7.21952  eV     1   --> B_1  D_3  S_3  
     e( 40 - 40) =      7.22241  eV     1   --> B_1  D_3  S_3  
     e( 41 - 41) =      7.77994  eV     1   --> A_2  D_2  S_2  
     e( 42 - 42) =      7.78576  eV     1   --> A_2  D_2  S_2  
     e( 43 - 43) =      8.12094  eV     1   --> B_2  D_4  S_4  
     e( 44 - 44) =      8.44105  eV     1   --> B_2  D_4  S_4  
     e( 45 - 45) =      8.98993  eV     1   --> A_1  D_1  S_1  
     e( 46 - 46) =      9.29221  eV     1   --> A_1  D_1  S_1  

 **************************************************************************

 **************************************************************************

                    xk=(   0.00000,   0.14434,   0.01380  )

     point group C_s (m)    
     there are  2 classes
     the character table:

       E     s    
A'     1.00  1.00
A''    1.00 -1.00

     the symmetry operations in each class and the name of the first element:

     E        1
                                                                 
     s        2
                                                                 

     Band symmetry, C_s (m)     point group:

     e(  1 -  1) =    -64.60805  eV     1   --> A'             
     e(  2 -  2) =    -64.60780  eV     1   --> A'             
     e(  3 -  3) =    -38.04614  eV     1   --> A'             
     e(  4 -  4) =    -38.04559  eV     1   --> A''            
     e(  5 -  5) =    -38.04224  eV     1   --> A'             
     e(  6 -  6) =    -38.04170  eV     1   --> A''            
     e(  7 -  7) =    -38.03960  eV     1   --> A'             
     e(  8 -  8) =    -38.03903  eV     1   --> A''            
     e(  9 -  9) =    -38.03597  eV     1   --> A'             
     e( 10 - 10) =    -38.03541  eV     1   --> A''            
     e( 11 - 11) =    -38.01086  eV     1   -->   ?
     e( 12 - 12) =    -38.01075  eV     1   -->   ?
     e( 13 - 14) =    -38.00707  eV     2   --> A'             
     e( 13 - 14) =    -38.00707  eV     2   --> A''            
     e( 15 - 15) =    -38.00424  eV     1   --> A'             
     e( 16 - 16) =    -38.00404  eV     1   --> A''            
     e( 17 - 17) =    -38.00072  eV     1   --> A'             
     e( 18 - 18) =    -38.00057  eV     1   --> A''            
     e( 19 - 19) =    -37.99525  eV     1   --> A'             
     e( 20 - 20) =    -37.99177  eV     1   --> A'             
     e( 21 - 21) =    -37.98809  eV     1   --> A'             
     e( 22 - 22) =    -37.98488  eV     1   --> A'             
     e( 23 - 23) =    -28.81855  eV     1   --> A'             
     e( 24 - 24) =    -28.81836  eV     1   --> A'             
     e( 25 - 25) =    -28.76211  eV     1   --> A'             
     e( 26 - 26) =    -28.76190  eV     1   --> A'             
     e( 27 - 27) =    -28.73840  eV     1   --> A''            
     e( 28 - 28) =    -28.73820  eV     1   --> A''            
     e( 29 - 29) =     -5.06779  eV     1   --> A'             
     e( 30 - 30) =     -5.04294  eV     1   --> A'             
     e( 31 - 31) =     -3.87916  eV     1   --> A'             
     e( 32 - 32) =     -3.83503  eV     1   --> A'             
     e( 33 - 33) =      3.50450  eV     1   --> A'             
     e( 34 - 34) =      3.73679  eV     1   --> A'             
     e( 35 - 35) =      6.36540  eV     1   --> A'             
     e( 36 - 36) =      6.36929  eV     1   --> A'             
     e( 37 - 37) =      6.63776  eV     1   --> A'             
     e( 38 - 38) =      7.04423  eV     1   --> A'             
     e( 39 - 39) =      7.21955  eV     1   --> A''            
     e( 40 - 40) =      7.22238  eV     1   --> A''            
     e( 41 - 41) =      7.78000  eV     1   --> A''            
     e( 42 - 42) =      7.78570  eV     1   --> A''            
     e( 43 - 43) =      8.12249  eV     1   --> A'             
     e( 44 - 44) =      8.43455  eV     1   --> A'             
     e( 45 - 45) =      8.99589  eV     1   --> A'             
     e( 46 - 46) =      9.29057  eV     1   --> A'             

 **************************************************************************

 **************************************************************************

                    xk=(   0.00000,   0.14434,   0.02760  )

     Band symmetry, C_s (m)     point group:

     e(  1 -  1) =    -64.60805  eV     1   --> A'             
     e(  2 -  2) =    -64.60780  eV     1   --> A'             
     e(  3 -  3) =    -38.04614  eV     1   --> A'             
     e(  4 -  4) =    -38.04559  eV     1   --> A''            
     e(  5 -  5) =    -38.04224  eV     1   --> A'             
     e(  6 -  6) =    -38.04170  eV     1   --> A''            
     e(  7 -  7) =    -38.03960  eV     1   --> A'             
     e(  8 -  8) =    -38.03903  eV     1   --> A''            
     e(  9 -  9) =    -38.03597  eV     1   --> A'             
     e( 10 - 10) =    -38.03541  eV     1   --> A''            
     e( 11 - 11) =    -38.01086  eV     1   -->   ?
     e( 12 - 12) =    -38.01075  eV     1   -->   ?
     e( 13 - 14) =    -38.00707  eV     2   --> A'             
     e( 13 - 14) =    -38.00707  eV     2   --> A''            
     e( 15 - 15) =    -38.00424  eV     1   --> A'             
     e( 16 - 16) =    -38.00404  eV     1   --> A''            
     e( 17 - 17) =    -38.00072  eV     1   --> A'             
     e( 18 - 18) =    -38.00057  eV     1   --> A''            
     e( 19 - 19) =    -37.99525  eV     1   --> A'             
     e( 20 - 20) =    -37.99177  eV     1   --> A'             
     e( 21 - 21) =    -37.98809  eV     1   --> A'             
     e( 22 - 22) =    -37.98488  eV     1   --> A'             
     e( 23 - 23) =    -28.81856  eV     1   --> A'             
     e( 24 - 24) =    -28.81837  eV     1   --> A'             
     e( 25 - 25) =    -28.76211  eV     1   --> A'             
     e( 26 - 26) =    -28.76190  eV     1   --> A'             
     e( 27 - 27) =    -28.73841  eV     1   --> A''            
     e( 28 - 28) =    -28.73820  eV     1   --> A''            
     e( 29 - 29) =     -5.06710  eV     1   --> A'             
     e( 30 - 30) =     -5.04369  eV     1   --> A'             
     e( 31 - 31) =     -3.87786  eV     1   --> A'             
     e( 32 - 32) =     -3.83629  eV     1   --> A'             
     e( 33 - 33) =      3.51062  eV     1   --> A'             
     e( 34 - 34) =      3.72930  eV     1   --> A'             
     e( 35 - 35) =      6.36550  eV     1   --> A'             
     e( 36 - 36) =      6.36917  eV     1   --> A'             
     e( 37 - 37) =      6.65075  eV     1   --> A'             
     e( 38 - 38) =      7.03382  eV     1   --> A'             
     e( 39 - 39) =      7.21963  eV     1   --> A''            
     e( 40 - 40) =      7.22230  eV     1   --> A''            
     e( 41 - 41) =      7.78016  eV     1   --> A''            
     e( 42 - 42) =      7.78554  eV     1   --> A''            
     e( 43 - 43) =      8.12717  eV     1   --> A'             
     e( 44 - 44) =      8.41632  eV     1   --> A'             
     e( 45 - 45) =      9.01259  eV     1   --> A'             
     e( 46 - 46) =      9.28567  eV     1   --> A'             

 **************************************************************************

 **************************************************************************

                    xk=(   0.00000,   0.14434,   0.04140  )

     Band symmetry, C_s (m)     point group:

     e(  1 -  1) =    -64.60805  eV     1   --> A'             
     e(  2 -  2) =    -64.60780  eV     1   --> A'             
     e(  3 -  3) =    -38.04614  eV     1   --> A'             
     e(  4 -  4) =    -38.04559  eV     1   --> A''            
     e(  5 -  5) =    -38.04224  eV     1   --> A'             
     e(  6 -  6) =    -38.04170  eV     1   --> A''            
     e(  7 -  7) =    -38.03960  eV     1   --> A'             
     e(  8 -  8) =    -38.03903  eV     1   --> A''            
     e(  9 -  9) =    -38.03597  eV     1   --> A'             
     e( 10 - 10) =    -38.03541  eV     1   --> A''            
     e( 11 - 11) =    -38.01086  eV     1   -->   ?
     e( 12 - 12) =    -38.01075  eV     1   -->   ?
     e( 13 - 14) =    -38.00707  eV     2   --> A'             
     e( 13 - 14) =    -38.00707  eV     2   --> A''            
     e( 15 - 15) =    -38.00424  eV     1   --> A'             
     e( 16 - 16) =    -38.00404  eV     1   --> A''            
     e( 17 - 17) =    -38.00072  eV     1   --> A'             
     e( 18 - 18) =    -38.00057  eV     1   --> A''            
     e( 19 - 19) =    -37.99525  eV     1   --> A'             
     e( 20 - 20) =    -37.99177  eV     1   --> A'             
     e( 21 - 21) =    -37.98809  eV     1   --> A'             
     e( 22 - 22) =    -37.98488  eV     1   --> A'             
     e( 23 - 23) =    -28.81855  eV     1   --> A'             
     e( 24 - 24) =    -28.81836  eV     1   --> A'             
     e( 25 - 25) =    -28.76210  eV     1   --> A'             
     e( 26 - 26) =    -28.76189  eV     1   --> A'             
     e( 27 - 27) =    -28.73840  eV     1   --> A''            
     e( 28 - 28) =    -28.73819  eV     1   --> A''            
     e( 29 - 29) =     -5.06596  eV     1   --> A'             
     e( 30 - 30) =     -5.04489  eV     1   --> A'             
     e( 31 - 31) =     -3.87575  eV     1   --> A'             
     e( 32 - 32) =     -3.83834  eV     1   --> A'             
     e( 33 - 33) =      3.52061  eV     1   --> A'             
     e( 34 - 34) =      3.71726  eV     1   --> A'             
     e( 35 - 35) =      6.36567  eV     1   --> A'             
     e( 36 - 36) =      6.36897  eV     1   --> A'             
     e( 37 - 37) =      6.67171  eV     1   --> A'             
     e( 38 - 38) =      7.01671  eV     1   --> A'             
     e( 39 - 39) =      7.21976  eV     1   --> A''            
     e( 40 - 40) =      7.22216  eV     1   --> A''            
     e( 41 - 41) =      7.78044  eV     1   --> A''            
     e( 42 - 42) =      7.78527  eV     1   --> A''            
     e( 43 - 43) =      8.13507  eV     1   --> A'             
     e( 44 - 44) =      8.38938  eV     1   --> A'             
     e( 45 - 45) =      9.03720  eV     1   --> A'             
     e( 46 - 46) =      9.27748  eV     1   --> A'             

 **************************************************************************

 **************************************************************************

                    xk=(   0.00000,   0.14434,   0.05520  )

     Band symmetry, C_s (m)     point group:

     e(  1 -  1) =    -64.60804  eV     1   --> A'             
     e(  2 -  2) =    -64.60780  eV     1   --> A'             
     e(  3 -  3) =    -38.04614  eV     1   --> A'             
     e(  4 -  4) =    -38.04559  eV     1   --> A''            
     e(  5 -  5) =    -38.04224  eV     1   --> A'             
     e(  6 -  6) =    -38.04170  eV     1   --> A''            
     e(  7 -  7) =    -38.03960  eV     1   --> A'             
     e(  8 -  8) =    -38.03903  eV     1   --> A''            
     e(  9 -  9) =    -38.03597  eV     1   --> A'             
     e( 10 - 10) =    -38.03541  eV     1   --> A''            
     e( 11 - 11) =    -38.01086  eV     1   -->   ?
     e( 12 - 12) =    -38.01075  eV     1   -->   ?
     e( 13 - 14) =    -38.00707  eV     2   --> A'             
     e( 13 - 14) =    -38.00707  eV     2   --> A''            
     e( 15 - 15) =    -38.00424  eV     1   --> A'             
     e( 16 - 16) =    -38.00404  eV     1   --> A''            
     e( 17 - 17) =    -38.00072  eV     1   --> A'             
     e( 18 - 18) =    -38.00057  eV     1   --> A''            
     e( 19 - 19) =    -37.99525  eV     1   --> A'             
     e( 20 - 20) =    -37.99177  eV     1   --> A'             
     e( 21 - 21) =    -37.98810  eV     1   --> A'             
     e( 22 - 22) =    -37.98488  eV     1   --> A'             
     e( 23 - 23) =    -28.81853  eV     1   --> A'             
     e( 24 - 24) =    -28.81835  eV     1   --> A'             
     e( 25 - 25) =    -28.76209  eV     1   --> A'             
     e( 26 - 26) =    -28.76188  eV     1   --> A'             
     e( 27 - 27) =    -28.73840  eV     1   --> A''            
     e( 28 - 28) =    -28.73820  eV     1   --> A''            
     e( 29 - 29) =     -5.06442  eV     1   --> A'             
     e( 30 - 30) =     -5.04651  eV     1   --> A'             
     e( 31 - 31) =     -3.87292  eV     1   --> A'             
     e( 32 - 32) =     -3.84111  eV     1   --> A'             
     e( 33 - 33) =      3.53420  eV     1   --> A'             
     e( 34 - 34) =      3.70127  eV     1   --> A'             
     e( 35 - 35) =      6.36591  eV     1   --> A'             
     e( 36 - 36) =      6.36870  eV     1   --> A'             
     e( 37 - 37) =      6.69964  eV     1   --> A'             
     e( 38 - 38) =      6.99329  eV     1   --> A'             
     e( 39 - 39) =      7.21994  eV     1   --> A''            
     e( 40 - 40) =      7.22198  eV     1   --> A''            
     e( 41 - 41) =      7.78079  eV     1   --> A''            
     e( 42 - 42) =      7.78491  eV     1   --> A''            
     e( 43 - 43) =      8.14631  eV     1   --> A'             
     e( 44 - 44) =      8.35724  eV     1   --> A'             
     e( 45 - 45) =      9.06656  eV     1   --> A'             
     e( 46 - 46) =      9.26596  eV     1   --> A'             

 **************************************************************************

 **************************************************************************

                    xk=(   0.00000,   0.14434,   0.06900  )

     Band symmetry, C_s (m)     point group:

     e(  1 -  1) =    -64.60804  eV     1   --> A'             
     e(  2 -  2) =    -64.60780  eV     1   --> A'             
     e(  3 -  3) =    -38.04614  eV     1   --> A'             
     e(  4 -  4) =    -38.04559  eV     1   --> A''            
     e(  5 -  5) =    -38.04224  eV     1   --> A'             
     e(  6 -  6) =    -38.04170  eV     1   --> A''            
     e(  7 -  7) =    -38.03960  eV     1   --> A'             
     e(  8 -  8) =    -38.03903  eV     1   --> A''            
     e(  9 -  9) =    -38.03597  eV     1   --> A'             
     e( 10 - 10) =    -38.03541  eV     1   --> A''            
     e( 11 - 11) =    -38.01086  eV     1   -->   ?
     e( 12 - 12) =    -38.01075  eV     1   -->   ?
     e( 13 - 14) =    -38.00707  eV     2   --> A'             
     e( 13 - 14) =    -38.00707  eV     2   --> A''            
     e( 15 - 15) =    -38.00424  eV     1   --> A'             
     e( 16 - 16) =    -38.00404  eV     1   --> A''            
     e( 17 - 17) =    -38.00072  eV     1   --> A'             
     e( 18 - 18) =    -38.00057  eV     1   --> A''            
     e( 19 - 19) =    -37.99525  eV     1   --> A'             
     e( 20 - 20) =    -37.99177  eV     1   --> A'             
     e( 21 - 21) =    -37.98810  eV     1   --> A'             
     e( 22 - 22) =    -37.98488  eV     1   --> A'             
     e( 23 - 23) =    -28.81854  eV     1   --> A'             
     e( 24 - 24) =    -28.81835  eV     1   --> A'             
     e( 25 - 25) =    -28.76209  eV     1   --> A'             
     e( 26 - 26) =    -28.76188  eV     1   --> A'             
     e( 27 - 27) =    -28.73840  eV     1   --> A''            
     e( 28 - 28) =    -28.73820  eV     1   --> A''            
     e( 29 - 29) =     -5.06254  eV     1   --> A'             
     e( 30 - 30) =     -5.04847  eV     1   --> A'             
     e( 31 - 31) =     -3.86948  eV     1   --> A'             
     e( 32 - 32) =     -3.84449  eV     1   --> A'             
     e( 33 - 33) =      3.55097  eV     1   --> A'             
     e( 34 - 34) =      3.68210  eV     1   --> A'             
     e( 35 - 35) =      6.36619  eV     1   --> A'             
     e( 36 - 36) =      6.36838  eV     1   --> A'             
     e( 37 - 37) =      6.73324  eV     1   --> A'             
     e( 38 - 38) =      6.96416  eV     1   --> A'             
     e( 39 - 39) =      7.22016  eV     1   --> A''            
     e( 40 - 40) =      7.22176  eV     1   --> A''            
     e( 41 - 41) =      7.78124  eV     1   --> A''            
     e( 42 - 42) =      7.78447  eV     1   --> A''            
     e( 43 - 43) =      8.16105  eV     1   --> A'             
     e( 44 - 44) =      8.32297  eV     1   --> A'             
     e( 45 - 45) =      9.09790  eV     1   --> A'             
     e( 46 - 46) =      9.25109  eV     1   --> A'             

 **************************************************************************

 **************************************************************************

                    xk=(   0.00000,   0.14434,   0.08280  )

     Band symmetry, C_s (m)     point group:

     e(  1 -  1) =    -64.60804  eV     1   --> A'             
     e(  2 -  2) =    -64.60780  eV     1   --> A'             
     e(  3 -  3) =    -38.04614  eV     1   --> A'             
     e(  4 -  4) =    -38.04559  eV     1   --> A''            
     e(  5 -  5) =    -38.04224  eV     1   --> A'             
     e(  6 -  6) =    -38.04170  eV     1   --> A''            
     e(  7 -  7) =    -38.03960  eV     1   --> A'             
     e(  8 -  8) =    -38.03903  eV     1   --> A''            
     e(  9 -  9) =    -38.03597  eV     1   --> A'             
     e( 10 - 10) =    -38.03541  eV     1   --> A''            
     e( 11 - 11) =    -38.01086  eV     1   -->   ?
     e( 12 - 12) =    -38.01075  eV     1   -->   ?
     e( 13 - 14) =    -38.00707  eV     2   --> A'             
     e( 13 - 14) =    -38.00707  eV     2   --> A''            
     e( 15 - 15) =    -38.00424  eV     1   --> A'             
     e( 16 - 16) =    -38.00404  eV     1   --> A''            
     e( 17 - 17) =    -38.00072  eV     1   --> A'             
     e( 18 - 18) =    -38.00057  eV     1   --> A''            
     e( 19 - 19) =    -37.99525  eV     1   --> A'             
     e( 20 - 20) =    -37.99177  eV     1   --> A'             
     e( 21 - 21) =    -37.98810  eV     1   --> A'             
     e( 22 - 22) =    -37.98488  eV     1   --> A'             
     e( 23 - 23) =    -28.81853  eV     1   --> A'             
     e( 24 - 24) =    -28.81834  eV     1   --> A'             
     e( 25 - 25) =    -28.76210  eV     1   --> A'             
     e( 26 - 26) =    -28.76189  eV     1   --> A'             
     e( 27 - 27) =    -28.73840  eV     1   --> A''            
     e( 28 - 28) =    -28.73820  eV     1   --> A''            
     e( 29 - 29) =     -5.06038  eV     1   --> A'             
     e( 30 - 30) =     -5.05069  eV     1   --> A'             
     e( 31 - 31) =     -3.86556  eV     1   --> A'             
     e( 32 - 32) =     -3.84835  eV     1   --> A'             
     e( 33 - 33) =      3.57040  eV     1   --> A'             
     e( 34 - 34) =      3.66065  eV     1   --> A'             
     e( 35 - 35) =      6.36652  eV     1   --> A'             
     e( 36 - 36) =      6.36803  eV     1   --> A'             
     e( 37 - 37) =      6.77100  eV     1   --> A'             
     e( 38 - 38) =      6.93017  eV     1   --> A'             
     e( 39 - 39) =      7.22041  eV     1   --> A''            
     e( 40 - 40) =      7.22151  eV     1   --> A''            
     e( 41 - 41) =      7.78174  eV     1   --> A''            
     e( 42 - 42) =      7.78397  eV     1   --> A''            
     e( 43 - 43) =      8.17944  eV     1   --> A'             
     e( 44 - 44) =      8.28892  eV     1   --> A'             
     e( 45 - 45) =      9.12921  eV     1   --> A'             
     e( 46 - 46) =      9.23285  eV     1   --> A'             

 **************************************************************************

 **************************************************************************

                    xk=(   0.00000,   0.14434,   0.09660  )

     Band symmetry, C_s (m)     point group:

     e(  1 -  1) =    -64.60804  eV     1   --> A'             
     e(  2 -  2) =    -64.60780  eV     1   --> A'             
     e(  3 -  3) =    -38.04614  eV     1   --> A'             
     e(  4 -  4) =    -38.04559  eV     1   --> A''            
     e(  5 -  5) =    -38.04224  eV     1   --> A'             
     e(  6 -  6) =    -38.04170  eV     1   --> A''            
     e(  7 -  7) =    -38.03960  eV     1   --> A'             
     e(  8 -  8) =    -38.03903  eV     1   --> A''            
     e(  9 -  9) =    -38.03597  eV     1   --> A'             
     e( 10 - 10) =    -38.03541  eV     1   --> A''            
     e( 11 - 11) =    -38.01086  eV     1   -->   ?
     e( 12 - 12) =    -38.01075  eV     1   -->   ?
     e( 13 - 14) =    -38.00707  eV     2   --> A'             
     e( 13 - 14) =    -38.00707  eV     2   --> A''            
     e( 15 - 15) =    -38.00424  eV     1   --> A'             
     e( 16 - 16) =    -38.00404  eV     1   --> A''            
     e( 17 - 17) =    -38.00072  eV     1   --> A'             
     e( 18 - 18) =    -38.00057  eV     1   --> A''            
     e( 19 - 19) =    -37.99525  eV     1   --> A'             
     e( 20 - 20) =    -37.99177  eV     1   --> A'             
     e( 21 - 21) =    -37.98810  eV     1   --> A'             
     e( 22 - 22) =    -37.98488  eV     1   --> A'             
     e( 23 - 23) =    -28.81853  eV     1   --> A'             
     e( 24 - 24) =    -28.81834  eV     1   --> A'             
     e( 25 - 25) =    -28.76210  eV     1   --> A'             
     e( 26 - 26) =    -28.76189  eV     1   --> A'             
     e( 27 - 27) =    -28.73841  eV     1   --> A''            
     e( 28 - 28) =    -28.73820  eV     1   --> A''            
     e( 29 - 29) =     -5.05803  eV     1   --> A'             
     e( 30 - 30) =     -5.05309  eV     1   --> A'             
     e( 31 - 31) =     -3.86132  eV     1   --> A'             
[...]

     E        1
                                                                 
     s        2
                                                                 

     Band symmetry, C_s (m)     point group:

     e(  1 -  1) =    -64.59972  eV     1   -->   ?
     e(  2 -  2) =    -64.59947  eV     1   -->   ?
     e(  3 -  3) =    -38.04441  eV     1   -->   ?
     e(  4 -  4) =    -38.04353  eV     1   -->   ?
     e(  5 -  5) =    -38.04059  eV     1   -->   ?
     e(  6 -  6) =    -38.03964  eV     1   -->   ?
     e(  7 -  7) =    -38.03772  eV     1   -->   ?
     e(  8 -  8) =    -38.03699  eV     1   -->   ?
     e(  9 -  9) =    -38.03419  eV     1   -->   ?
     e( 10 - 10) =    -38.03336  eV     1   -->   ?
     e( 11 - 11) =    -38.01209  eV     1   -->   ?
     e( 12 - 12) =    -38.01148  eV     1   -->   ?
     e( 13 - 13) =    -38.00846  eV     1   -->   ?
     e( 14 - 14) =    -38.00770  eV     1   -->   ?
     e( 15 - 15) =    -38.00518  eV     1   -->   ?
     e( 16 - 16) =    -38.00486  eV     1   -->   ?
     e( 17 - 17) =    -38.00182  eV     1   -->   ?
     e( 18 - 18) =    -38.00135  eV     1   -->   ?
     e( 19 - 19) =    -37.99355  eV     1   -->   ?
     e( 20 - 20) =    -37.99012  eV     1   -->   ?
     e( 21 - 21) =    -37.98627  eV     1   -->   ?
     e( 22 - 22) =    -37.98311  eV     1   -->   ?
     e( 23 - 23) =    -28.89254  eV     1   -->   ?
     e( 24 - 24) =    -28.89233  eV     1   -->   ?
     e( 25 - 25) =    -28.85667  eV     1   -->   ?
     e( 26 - 26) =    -28.85647  eV     1   -->   ?
     e( 27 - 27) =    -28.77620  eV     1   -->   ?
     e( 28 - 28) =    -28.77601  eV     1   -->   ?
     e( 29 - 29) =     -3.12255  eV     1   -->   ?
     e( 30 - 30) =     -3.11944  eV     1   -->   ?
     e( 31 - 31) =     -2.94792  eV     1   -->   ?
     e( 32 - 32) =     -2.94467  eV     1   -->   ?
     e( 33 - 33) =      4.13882  eV     1   -->   ?
     e( 34 - 34) =      4.16196  eV     1   -->   ?
     e( 35 - 35) =      4.16635  eV     1   -->   ?
     e( 36 - 36) =      4.16954  eV     1   -->   ?
     e( 37 - 37) =      5.21907  eV     1   --> A'             
     e( 38 - 38) =      5.24170  eV     1   --> A''            
     e( 39 - 39) =      5.70738  eV     1   --> A'             
     e( 40 - 40) =      5.73984  eV     1   --> A''            
     e( 41 - 41) =      6.19996  eV     1   --> A''            
     e( 42 - 42) =      6.24259  eV     1   --> A'             
     e( 43 - 43) =      7.23178  eV     1   --> A'             
     e( 44 - 44) =      7.25529  eV     1   --> A''            
     e( 45 - 45) =      9.38198  eV     1   --> A'             
     e( 46 - 46) =      9.42442  eV     1   --> A''            

 **************************************************************************

 **************************************************************************

                    xk=(   0.31250,   0.54127,   0.02760  )

     Band symmetry, C_s (m)     point group:

     e(  1 -  1) =    -64.59972  eV     1   -->   ?
     e(  2 -  2) =    -64.59947  eV     1   -->   ?
     e(  3 -  3) =    -38.04441  eV     1   -->   ?
     e(  4 -  4) =    -38.04353  eV     1   -->   ?
     e(  5 -  5) =    -38.04059  eV     1   -->   ?
     e(  6 -  6) =    -38.03964  eV     1   -->   ?
     e(  7 -  7) =    -38.03772  eV     1   -->   ?
     e(  8 -  8) =    -38.03699  eV     1   -->   ?
     e(  9 -  9) =    -38.03419  eV     1   -->   ?
     e( 10 - 10) =    -38.03336  eV     1   -->   ?
     e( 11 - 11) =    -38.01209  eV     1   -->   ?
     e( 12 - 12) =    -38.01148  eV     1   -->   ?
     e( 13 - 13) =    -38.00846  eV     1   -->   ?
     e( 14 - 14) =    -38.00770  eV     1   -->   ?
     e( 15 - 15) =    -38.00518  eV     1   -->   ?
     e( 16 - 16) =    -38.00486  eV     1   -->   ?
     e( 17 - 17) =    -38.00182  eV     1   -->   ?
     e( 18 - 18) =    -38.00135  eV     1   -->   ?
     e( 19 - 19) =    -37.99355  eV     1   -->   ?
     e( 20 - 20) =    -37.99011  eV     1   -->   ?
     e( 21 - 21) =    -37.98627  eV     1   -->   ?
     e( 22 - 22) =    -37.98311  eV     1   -->   ?
     e( 23 - 23) =    -28.89254  eV     1   -->   ?
     e( 24 - 24) =    -28.89233  eV     1   -->   ?
     e( 25 - 25) =    -28.85668  eV     1   -->   ?
     e( 26 - 26) =    -28.85648  eV     1   -->   ?
     e( 27 - 27) =    -28.77620  eV     1   -->   ?
     e( 28 - 28) =    -28.77601  eV     1   -->   ?
     e( 29 - 29) =     -3.12246  eV     1   -->   ?
     e( 30 - 30) =     -3.11953  eV     1   -->   ?
     e( 31 - 31) =     -2.94782  eV     1   -->   ?
     e( 32 - 32) =     -2.94476  eV     1   -->   ?
     e( 33 - 33) =      4.13943  eV     1   -->   ?
     e( 34 - 34) =      4.16099  eV     1   -->   ?
     e( 35 - 35) =      4.16675  eV     1   -->   ?
     e( 36 - 36) =      4.16954  eV     1   -->   ?
     e( 37 - 37) =      5.21975  eV     1   --> A'             
     e( 38 - 38) =      5.24105  eV     1   --> A''            
     e( 39 - 39) =      5.70750  eV     1   --> A'             
     e( 40 - 40) =      5.73796  eV     1   --> A''            
     e( 41 - 41) =      6.20260  eV     1   --> A''            
     e( 42 - 42) =      6.24267  eV     1   --> A'             
     e( 43 - 43) =      7.23183  eV     1   --> A'             
     e( 44 - 44) =      7.25401  eV     1   --> A''            
     e( 45 - 45) =      9.38317  eV     1   --> A'             
     e( 46 - 46) =      9.42314  eV     1   --> A''            

 **************************************************************************

 **************************************************************************

                    xk=(   0.31250,   0.54127,   0.04140  )

     Band symmetry, C_s (m)     point group:

     e(  1 -  1) =    -64.59972  eV     1   -->   ?
     e(  2 -  2) =    -64.59947  eV     1   -->   ?
     e(  3 -  3) =    -38.04441  eV     1   -->   ?
     e(  4 -  4) =    -38.04353  eV     1   -->   ?
     e(  5 -  5) =    -38.04059  eV     1   -->   ?
     e(  6 -  6) =    -38.03964  eV     1   -->   ?
     e(  7 -  7) =    -38.03772  eV     1   -->   ?
     e(  8 -  8) =    -38.03699  eV     1   -->   ?
     e(  9 -  9) =    -38.03419  eV     1   -->   ?
     e( 10 - 10) =    -38.03336  eV     1   -->   ?
     e( 11 - 11) =    -38.01209  eV     1   -->   ?
     e( 12 - 12) =    -38.01148  eV     1   -->   ?
     e( 13 - 13) =    -38.00846  eV     1   -->   ?
     e( 14 - 14) =    -38.00770  eV     1   -->   ?
     e( 15 - 15) =    -38.00518  eV     1   -->   ?
     e( 16 - 16) =    -38.00486  eV     1   -->   ?
     e( 17 - 17) =    -38.00182  eV     1   -->   ?
     e( 18 - 18) =    -38.00135  eV     1   -->   ?
     e( 19 - 19) =    -37.99354  eV     1   -->   ?
     e( 20 - 20) =    -37.99011  eV     1   -->   ?
     e( 21 - 21) =    -37.98627  eV     1   -->   ?
     e( 22 - 22) =    -37.98311  eV     1   -->   ?
     e( 23 - 23) =    -28.89253  eV     1   -->   ?
     e( 24 - 24) =    -28.89232  eV     1   -->   ?
     e( 25 - 25) =    -28.85667  eV     1   -->   ?
     e( 26 - 26) =    -28.85648  eV     1   -->   ?
     e( 27 - 27) =    -28.77621  eV     1   -->   ?
     e( 28 - 28) =    -28.77602  eV     1   -->   ?
     e( 29 - 29) =     -3.12231  eV     1   -->   ?
     e( 30 - 30) =     -3.11968  eV     1   -->   ?
     e( 31 - 31) =     -2.94767  eV     1   -->   ?
     e( 32 - 32) =     -2.94491  eV     1   -->   ?
     e( 33 - 33) =      4.14042  eV     1   -->   ?
     e( 34 - 34) =      4.15962  eV     1   -->   ?
     e( 35 - 35) =      4.16721  eV     1   -->   ?
     e( 36 - 36) =      4.16953  eV     1   -->   ?
     e( 37 - 37) =      5.22084  eV     1   --> A'             
     e( 38 - 38) =      5.24000  eV     1   --> A''            
     e( 39 - 39) =      5.70779  eV     1   --> A'             
     e( 40 - 40) =      5.73506  eV     1   --> A''            
     e( 41 - 41) =      6.20669  eV     1   --> A''            
     e( 42 - 42) =      6.24264  eV     1   --> A'             
     e( 43 - 43) =      7.23200  eV     1   --> A'             
     e( 44 - 44) =      7.25199  eV     1   --> A''            
     e( 45 - 45) =      9.38509  eV     1   --> A'             
     e( 46 - 46) =      9.42107  eV     1   --> A''            

 **************************************************************************

 **************************************************************************

                    xk=(   0.31250,   0.54127,   0.05520  )

     Band symmetry, C_s (m)     point group:

     e(  1 -  1) =    -64.59972  eV     1   -->   ?
     e(  2 -  2) =    -64.59947  eV     1   -->   ?
     e(  3 -  3) =    -38.04441  eV     1   -->   ?
     e(  4 -  4) =    -38.04353  eV     1   -->   ?
     e(  5 -  5) =    -38.04059  eV     1   -->   ?
     e(  6 -  6) =    -38.03964  eV     1   -->   ?
     e(  7 -  7) =    -38.03772  eV     1   -->   ?
     e(  8 -  8) =    -38.03699  eV     1   -->   ?
     e(  9 -  9) =    -38.03419  eV     1   -->   ?
     e( 10 - 10) =    -38.03336  eV     1   -->   ?
     e( 11 - 11) =    -38.01209  eV     1   -->   ?
     e( 12 - 12) =    -38.01148  eV     1   -->   ?
     e( 13 - 13) =    -38.00846  eV     1   -->   ?
     e( 14 - 14) =    -38.00770  eV     1   -->   ?
     e( 15 - 15) =    -38.00518  eV     1   -->   ?
     e( 16 - 16) =    -38.00486  eV     1   -->   ?
     e( 17 - 17) =    -38.00182  eV     1   -->   ?
     e( 18 - 18) =    -38.00135  eV     1   -->   ?
     e( 19 - 19) =    -37.99354  eV     1   -->   ?
     e( 20 - 20) =    -37.99011  eV     1   -->   ?
     e( 21 - 21) =    -37.98627  eV     1   -->   ?
     e( 22 - 22) =    -37.98310  eV     1   -->   ?
     e( 23 - 23) =    -28.89253  eV     1   -->   ?
     e( 24 - 24) =    -28.89232  eV     1   -->   ?
     e( 25 - 25) =    -28.85668  eV     1   -->   ?
     e( 26 - 26) =    -28.85648  eV     1   -->   ?
     e( 27 - 27) =    -28.77620  eV     1   -->   ?
     e( 28 - 28) =    -28.77601  eV     1   -->   ?
     e( 29 - 29) =     -3.12212  eV     1   -->   ?
     e( 30 - 30) =     -3.11988  eV     1   -->   ?
     e( 31 - 31) =     -2.94746  eV     1   -->   ?
     e( 32 - 32) =     -2.94511  eV     1   -->   ?
     e( 33 - 33) =      4.14175  eV     1   -->   ?
     e( 34 - 34) =      4.15795  eV     1   -->   ?
     e( 35 - 35) =      4.16765  eV     1   -->   ?
     e( 36 - 36) =      4.16952  eV     1   -->   ?
     e( 37 - 37) =      5.22230  eV     1   --> A'             
     e( 38 - 38) =      5.23858  eV     1   --> A''            
     e( 39 - 39) =      5.70837  eV     1   --> A'             
     e( 40 - 40) =      5.73142  eV     1   --> A''            
     e( 41 - 41) =      6.21182  eV     1   --> A''            
     e( 42 - 42) =      6.24228  eV     1   --> A'             
     e( 43 - 43) =      7.23238  eV     1   --> A'             
     e( 44 - 44) =      7.24943  eV     1   --> A''            
     e( 45 - 45) =      9.38770  eV     1   --> A'             
     e( 46 - 46) =      9.41829  eV     1   --> A''            

 **************************************************************************

 **************************************************************************

                    xk=(   0.31250,   0.54127,   0.06900  )

     Band symmetry, C_s (m)     point group:

     e(  1 -  1) =    -64.59972  eV     1   -->   ?
     e(  2 -  2) =    -64.59947  eV     1   -->   ?
     e(  3 -  3) =    -38.04441  eV     1   -->   ?
     e(  4 -  4) =    -38.04353  eV     1   -->   ?
     e(  5 -  5) =    -38.04059  eV     1   -->   ?
     e(  6 -  6) =    -38.03964  eV     1   -->   ?
     e(  7 -  7) =    -38.03772  eV     1   -->   ?
     e(  8 -  8) =    -38.03699  eV     1   -->   ?
     e(  9 -  9) =    -38.03419  eV     1   -->   ?
     e( 10 - 10) =    -38.03336  eV     1   -->   ?
     e( 11 - 11) =    -38.01209  eV     1   -->   ?
     e( 12 - 12) =    -38.01148  eV     1   -->   ?
     e( 13 - 13) =    -38.00846  eV     1   -->   ?
     e( 14 - 14) =    -38.00770  eV     1   -->   ?
     e( 15 - 15) =    -38.00518  eV     1   -->   ?
     e( 16 - 16) =    -38.00486  eV     1   -->   ?
     e( 17 - 17) =    -38.00182  eV     1   -->   ?
     e( 18 - 18) =    -38.00135  eV     1   -->   ?
     e( 19 - 19) =    -37.99354  eV     1   -->   ?
     e( 20 - 20) =    -37.99011  eV     1   -->   ?
     e( 21 - 21) =    -37.98627  eV     1   -->   ?
     e( 22 - 22) =    -37.98310  eV     1   -->   ?
     e( 23 - 23) =    -28.89253  eV     1   -->   ?
     e( 24 - 24) =    -28.89232  eV     1   -->   ?
     e( 25 - 25) =    -28.85667  eV     1   -->   ?
     e( 26 - 26) =    -28.85648  eV     1   -->   ?
     e( 27 - 27) =    -28.77620  eV     1   -->   ?
     e( 28 - 28) =    -28.77602  eV     1   -->   ?
     e( 29 - 29) =     -3.12188  eV     1   -->   ?
     e( 30 - 30) =     -3.12012  eV     1   -->   ?
     e( 31 - 31) =     -2.94721  eV     1   -->   ?
     e( 32 - 32) =     -2.94536  eV     1   -->   ?
     e( 33 - 33) =      4.14339  eV     1   -->   ?
     e( 34 - 34) =      4.15604  eV     1   -->   ?
     e( 35 - 35) =      4.16803  eV     1   -->   ?
     e( 36 - 36) =      4.16948  eV     1   -->   ?
     e( 37 - 37) =      5.22407  eV     1   --> A'             
     e( 38 - 38) =      5.23685  eV     1   --> A''            
     e( 39 - 39) =      5.70938  eV     1   --> A'             
     e( 40 - 40) =      5.72738  eV     1   --> A''            
     e( 41 - 41) =      6.21750  eV     1   --> A''            
     e( 42 - 42) =      6.24135  eV     1   --> A'             
     e( 43 - 43) =      7.23310  eV     1   --> A'             
     e( 44 - 44) =      7.24652  eV     1   --> A''            
     e( 45 - 45) =      9.39089  eV     1   --> A'             
     e( 46 - 46) =      9.41492  eV     1   --> A''            

 **************************************************************************

 **************************************************************************

                    xk=(   0.31250,   0.54127,   0.08280  )

     Band symmetry, C_s (m)     point group:

     e(  1 -  1) =    -64.59972  eV     1   -->   ?
     e(  2 -  2) =    -64.59947  eV     1   -->   ?
     e(  3 -  3) =    -38.04441  eV     1   -->   ?
     e(  4 -  4) =    -38.04353  eV     1   -->   ?
     e(  5 -  5) =    -38.04059  eV     1   -->   ?
     e(  6 -  6) =    -38.03964  eV     1   -->   ?
     e(  7 -  7) =    -38.03772  eV     1   -->   ?
     e(  8 -  8) =    -38.03699  eV     1   -->   ?
     e(  9 -  9) =    -38.03419  eV     1   -->   ?
     e( 10 - 10) =    -38.03336  eV     1   -->   ?
     e( 11 - 11) =    -38.01209  eV     1   -->   ?
     e( 12 - 12) =    -38.01148  eV     1   -->   ?
     e( 13 - 13) =    -38.00846  eV     1   -->   ?
     e( 14 - 14) =    -38.00770  eV     1   -->   ?
     e( 15 - 15) =    -38.00518  eV     1   -->   ?
     e( 16 - 16) =    -38.00486  eV     1   -->   ?
     e( 17 - 17) =    -38.00182  eV     1   -->   ?
     e( 18 - 18) =    -38.00135  eV     1   -->   ?
     e( 19 - 19) =    -37.99354  eV     1   -->   ?
     e( 20 - 20) =    -37.99011  eV     1   -->   ?
     e( 21 - 21) =    -37.98627  eV     1   -->   ?
     e( 22 - 22) =    -37.98310  eV     1   -->   ?
     e( 23 - 23) =    -28.89253  eV     1   -->   ?
     e( 24 - 24) =    -28.89232  eV     1   -->   ?
     e( 25 - 25) =    -28.85668  eV     1   -->   ?
     e( 26 - 26) =    -28.85649  eV     1   -->   ?
     e( 27 - 27) =    -28.77621  eV     1   -->   ?
     e( 28 - 28) =    -28.77602  eV     1   -->   ?
     e( 29 - 29) =     -3.12161  eV     1   -->   ?
     e( 30 - 30) =     -3.12040  eV     1   -->   ?
     e( 31 - 31) =     -2.94692  eV     1   -->   ?
     e( 32 - 32) =     -2.94565  eV     1   -->   ?
     e( 33 - 33) =      4.14527  eV     1   -->   ?
     e( 34 - 34) =      4.15397  eV     1   -->   ?
     e( 35 - 35) =      4.16835  eV     1   -->   ?
     e( 36 - 36) =      4.16942  eV     1   -->   ?
     e( 37 - 37) =      5.22608  eV     1   --> A'             
     e( 38 - 38) =      5.23488  eV     1   --> A''            
     e( 39 - 39) =      5.71094  eV     1   -->   ?
     e( 40 - 40) =      5.72328  eV     1   -->   ?
     e( 41 - 41) =      6.22323  eV     1   --> A''            
     e( 42 - 42) =      6.23961  eV     1   --> A'             
     e( 43 - 43) =      7.23424  eV     1   --> A'             
     e( 44 - 44) =      7.24351  eV     1   --> A''            
     e( 45 - 45) =      9.39456  eV     1   --> A'             
     e( 46 - 46) =      9.41111  eV     1   --> A''            

 **************************************************************************

 **************************************************************************

                    xk=(   0.31250,   0.54127,   0.09660  )

     Band symmetry, C_s (m)     point group:

     e(  1 -  1) =    -64.59972  eV     1   -->   ?
     e(  2 -  2) =    -64.59947  eV     1   -->   ?
     e(  3 -  3) =    -38.04441  eV     1   -->   ?
     e(  4 -  4) =    -38.04353  eV     1   -->   ?
     e(  5 -  5) =    -38.04059  eV     1   -->   ?
     e(  6 -  6) =    -38.03964  eV     1   -->   ?
     e(  7 -  7) =    -38.03772  eV     1   -->   ?
     e(  8 -  8) =    -38.03699  eV     1   -->   ?
     e(  9 -  9) =    -38.03419  eV     1   -->   ?
     e( 10 - 10) =    -38.03336  eV     1   -->   ?
     e( 11 - 11) =    -38.01209  eV     1   -->   ?
     e( 12 - 12) =    -38.01148  eV     1   -->   ?
     e( 13 - 13) =    -38.00846  eV     1   -->   ?
     e( 14 - 14) =    -38.00770  eV     1   -->   ?
     e( 15 - 15) =    -38.00518  eV     1   -->   ?
     e( 16 - 16) =    -38.00486  eV     1   -->   ?
     e( 17 - 17) =    -38.00182  eV     1   -->   ?
     e( 18 - 18) =    -38.00135  eV     1   -->   ?
     e( 19 - 19) =    -37.99354  eV     1   -->   ?
     e( 20 - 20) =    -37.99011  eV     1   -->   ?
     e( 21 - 21) =    -37.98627  eV     1   -->   ?
     e( 22 - 22) =    -37.98310  eV     1   -->   ?
     e( 23 - 23) =    -28.89254  eV     1   -->   ?
     e( 24 - 24) =    -28.89233  eV     1   -->   ?
     e( 25 - 25) =    -28.85669  eV     1   -->   ?
     e( 26 - 26) =    -28.85649  eV     1   -->   ?
     e( 27 - 27) =    -28.77623  eV     1   -->   ?
     e( 28 - 28) =    -28.77604  eV     1   -->   ?
     e( 29 - 29) =     -3.12132  eV     1   -->   ?
     e( 30 - 30) =     -3.12069  eV     1   -->   ?
     e( 31 - 31) =     -2.94661  eV     1   -->   ?
     e( 32 - 32) =     -2.94595  eV     1   -->   ?
     e( 33 - 33) =      4.14733  eV     1   -->   ?
     e( 34 - 34) =      4.15180  eV     1   -->   ?
     e( 35 - 35) =      4.16857  eV     1   -->   ?
     e( 36 - 36) =      4.16936  eV     1   -->   ?
     e( 37 - 37) =      5.22824  eV     1   -->   ?
     e( 38 - 38) =      5.23273  eV     1   -->   ?
     e( 39 - 39) =      5.71313  eV     1   -->   ?
     e( 40 - 40) =      5.71941  eV     1   -->   ?
     e( 41 - 41) =      6.22858  eV     1   -->   ?
     e( 42 - 42) =      6.23692  eV     1   -->   ?
     e( 43 - 43) =      7.23589  eV     1   --> A'             
     e( 44 - 44) =      7.24062  eV     1   --> A''            
     e( 45 - 45) =      9.39856  eV     1   --> A'             
     e( 46 - 46) =      9.40700  eV     1   --> A''            

 **************************************************************************

 **************************************************************************

                    xk=(   0.31250,   0.54127,  -0.11039  )

     zone border point and non-symmorphic group 
     symmetry decomposition not available

 **************************************************************************

     BANDS        :   6m17.13s CPU   7m 3.98s WALL


   This run was terminated on:  18:26: 8   7Sep2024            

=------------------------------------------------------------------------------=
   JOB DONE.
=------------------------------------------------------------------------------=
